# vtk DataFile Version 4.0
vtk output
ASCII
DATASET POLYDATA
POINTS 1062 float
0 0 0 0 0 1 0 1 1 
0 1 0 1 0 0 1 1 0 
1 1 1 1 0 1 0 0 0 
0 0 0 0 0 1 0 0 1 
0 1 1 0 1 1 0 1 0 
0 1 0 1 0 0 1 0 0 
1 1 0 1 1 0 1 1 1 
1 1 1 1 0 1 1 0 1 
0 0.9 0 0 0.8 0 0 0.7 0 
0 0.6 0 0 0.5 0 0 0.4 0 
0 0.3 0 0 0.2 0 0 0.1 0 
0 0 0.1 0 0 0.2 0 0 0.3 
0 0 0.4 0 0 0.5 0 0 0.6 
0 0 0.7 0 0 0.8 0 0 0.9 
0 0.0666667 0.933333 0 0.133333 0.866667 0 0.2 0.8 
0 0.266667 0.733333 0 0.333333 0.666667 0 0.4 0.6 
0 0.466667 0.533333 0 0.533333 0.466667 0 0.6 0.4 
0 0.666667 0.333333 0 0.733333 0.266667 0 0.8 0.2 
0 0.866667 0.133333 0 0.933333 0.0666667 0 0.85 0.0583333 
0 0.55 0.183333 0 0.255556 0.388889 0 0.05 0.05 
0 0.138889 0.672222 0 0.0583333 0.85 0 0.0880359 0.756319 
0 0.636458 0.236458 0 0.65 0.112121 0 0.751798 0.0919115 
0 0.55 0.0848485 0 0.35 0.193939 0 0.125845 0.35 
0 0.268403 0.535069 0 0.401736 0.401736 0 0.191993 0.725327 
0 0.232923 0.631293 0 0.114222 0.55 0 0.0622222 0.65 
0 0.13489 0.801557 0 0.537695 0.300276 0 0.65 0.044912 
0 0.616871 0.171419 0 0.706832 0.181217 0 0.801296 0.13463 
0 0.447107 0.134091 0 0.35 0.0905244 0 0.0529899 0.35 
0 0.0927212 0.25 0 0.0949592 0.144959 0 0.323188 0.589855 
0 0.362462 0.495796 0 0.456522 0.456522 0 0.50535 0.382681 
0 0.0461675 0.55 0 0.16485 0.603383 0 0.0899419 0.45 
0 0.598364 0.331697 0 0.571814 0.244747 0 0.510337 0.134091 
0 0.45 0.0577546 0 0.385128 0.142232 0 0.216594 0.200095 
0 0.15 0.0743059 0 0.326006 0.425345 0 0.185238 0.479809 
0 0.143982 0.198548 0 0.17858 0.279503 0 0.197044 0.348287 
0 0.287252 0.282724 0 0.342299 0.344342 0 0.436401 0.306364 
0 0.280769 0.142232 0 0.206827 0.124743 0 0.259537 0.0669451 
0 0.201252 0.54592 0 0.25672 0.462441 0 0.152844 0.416139 
0 0.482965 0.235398 0 0.40927 0.237802 0 0.284077 0.213914 
0 0.1 1 0 0.2 1 0 0.3 1 
0 0.4 1 0 0.5 1 0 0.6 1 
0 0.7 1 0 0.8 1 0 0.9 1 
0 1 0.9 0 1 0.8 0 1 0.7 
0 1 0.6 0 1 0.5 0 1 0.4 
0 1 0.3 0 1 0.2 0 1 0.1 
0 0.15 0.941667 0 0.45 0.816667 0 0.744444 0.611111 
0 0.95 0.95 0 0.9 0.233333 0 0.941667 0.15 
0 0.822222 0.422222 0 0.363542 0.763542 0 0.35 0.887879 
0 0.248202 0.908088 0 0.45 0.915152 0 0.65 0.806061 
0 0.874155 0.65 0 0.652431 0.519097 0 0.961111 0.25 
0 0.903472 0.35 0 0.756566 0.356566 0 0.915972 0.45 
0 0.462305 0.699724 0 0.35 0.955088 0 0.383129 0.828581 
0 0.293168 0.818783 0 0.198704 0.86537 0 0.552893 0.865909 
0 0.65 0.909476 0 0.94701 0.65 0 0.907279 0.75 
0 0.905041 0.855041 0 0.603071 0.469738 0 0.562315 0.562315 
0 0.726719 0.452069 0 0.829826 0.348962 0 0.838836 0.538243 
0 0.919811 0.568095 0 0.401637 0.668303 0 0.428186 0.755253 
0 0.483699 0.617032 0 0.592224 0.689223 0 0.525444 0.671946 
0 0.535857 0.769396 0 0.489663 0.865909 0 0.55 0.942245 
0 0.614872 0.857768 0 0.783406 0.799905 0 0.85 0.925694 
0 0.671905 0.405238 0 0.731497 0.532045 0 0.808999 0.275665 
0 0.857154 0.47642 0 0.787394 0.488575 0 0.640968 0.610757 
0 0.602914 0.756641 0 0.700939 0.710387 0 0.856018 0.801452 
0 0.82142 0.720497 0 0.802956 0.651713 0 0.719231 0.857768 
0 0.793173 0.875257 0 0.740463 0.933055 0 0.872198 0.292546 
0 0.692581 0.647553 0 0.715624 0.779603 1 0 0.9 
1 0 0.8 1 0 0.7 1 0 0.6 
1 0 0.5 1 0 0.4 1 0 0.3 
1 0 0.2 1 0 0.1 1 0.1 0 
1 0.2 0 1 0.3 0 1 0.4 0 
1 0.5 0 1 0.6 0 1 0.7 0 
1 0.8 0 1 0.9 0 1 0.933333 0.0666667 
1 0.866667 0.133333 1 0.8 0.2 1 0.733333 0.266667 
1 0.666667 0.333333 1 0.6 0.4 1 0.533333 0.466667 
1 0.466667 0.533333 1 0.4 0.6 1 0.333333 0.666667 
1 0.266667 0.733333 1 0.2 0.8 1 0.133333 0.866667 
1 0.0666667 0.933333 1 0.0583333 0.85 1 0.183333 0.55 
1 0.388889 0.255556 1 0.05 0.05 1 0.672222 0.138889 
1 0.85 0.0583333 1 0.756319 0.0880359 1 0.236458 0.636458 
1 0.112121 0.65 1 0.0919115 0.751798 1 0.0848485 0.55 
1 0.193939 0.35 1 0.35 0.125845 1 0.535069 0.268403 
1 0.401736 0.401736 1 0.725327 0.191993 1 0.631293 0.232923 
1 0.55 0.114222 1 0.65 0.0622222 1 0.801557 0.13489 
1 0.300276 0.537695 1 0.044912 0.65 1 0.171419 0.616871 
1 0.181217 0.706832 1 0.13463 0.801296 1 0.134091 0.447107 
1 0.0905244 0.35 1 0.35 0.0529899 1 0.25 0.0927212 
1 0.144959 0.0949592 1 0.589855 0.323188 1 0.495796 0.362462 
1 0.456522 0.456522 1 0.382681 0.50535 1 0.55 0.0461675 
1 0.603383 0.16485 1 0.45 0.0899419 1 0.331697 0.598364 
1 0.244747 0.571814 1 0.134091 0.510337 1 0.0577546 0.45 
1 0.142232 0.385128 1 0.200095 0.216594 1 0.0743059 0.15 
1 0.425345 0.326006 1 0.479809 0.185238 1 0.198548 0.143982 
1 0.279503 0.17858 1 0.348287 0.197044 1 0.282724 0.287252 
1 0.344342 0.342299 1 0.306364 0.436401 1 0.142232 0.280769 
1 0.124743 0.206827 1 0.0669451 0.259537 1 0.54592 0.201252 
1 0.462441 0.25672 1 0.416139 0.152844 1 0.235398 0.482965 
1 0.237802 0.40927 1 0.213914 0.284077 1 1 0.1 
1 1 0.2 1 1 0.3 1 1 0.4 
1 1 0.5 1 1 0.6 1 1 0.7 
1 1 0.8 1 1 0.9 1 0.9 1 
1 0.8 1 1 0.7 1 1 0.6 1 
1 0.5 1 1 0.4 1 1 0.3 1 
1 0.2 1 1 0.1 1 1 0.941667 0.15 
1 0.816667 0.45 1 0.611111 0.744444 1 0.95 0.95 
1 0.233333 0.9 1 0.15 0.941667 1 0.422222 0.822222 
1 0.763542 0.363542 1 0.887879 0.35 1 0.908088 0.248202 
1 0.915152 0.45 1 0.806061 0.65 1 0.65 0.874155 
1 0.519097 0.652431 1 0.25 0.961111 1 0.35 0.903472 
1 0.356566 0.756566 1 0.45 0.915972 1 0.699724 0.462305 
1 0.955088 0.35 1 0.828581 0.383129 1 0.818783 0.293168 
1 0.86537 0.198704 1 0.865909 0.552893 1 0.909476 0.65 
1 0.65 0.94701 1 0.75 0.907279 1 0.855041 0.905041 
1 0.469738 0.603071 1 0.562315 0.562315 1 0.452069 0.726719 
1 0.348962 0.829826 1 0.538243 0.838836 1 0.568095 0.919811 
1 0.668303 0.401637 1 0.755253 0.428186 1 0.617032 0.483699 
1 0.689223 0.592224 1 0.671946 0.525444 1 0.769396 0.535857 
1 0.865909 0.489663 1 0.942245 0.55 1 0.857768 0.614872 
1 0.799905 0.783406 1 0.925694 0.85 1 0.405238 0.671905 
1 0.532045 0.731497 1 0.275665 0.808999 1 0.47642 0.857154 
1 0.488575 0.787394 1 0.610757 0.640968 1 0.756641 0.602914 
1 0.710387 0.700939 1 0.801452 0.856018 1 0.720497 0.82142 
1 0.651713 0.802956 1 0.857768 0.719231 1 0.875257 0.793173 
1 0.933055 0.740463 1 0.292546 0.872198 1 0.647553 0.692581 
1 0.779603 0.715624 0 0 0.9 0 0 0.8 
0 0 0.7 0 0 0.6 0 0 0.5 
0 0 0.4 0 0 0.3 0 0 0.2 
0 0 0.1 0.1 0 0 0.2 0 0 
0.3 0 0 0.4 0 0 0.5 0 0 
0.6 0 0 0.7 0 0 0.8 0 0 
0.9 0 0 0.933333 0 0.0666667 0.866667 0 0.133333 
0.8 0 0.2 0.733333 0 0.266667 0.666667 0 0.333333 
0.6 0 0.4 0.533333 0 0.466667 0.466667 0 0.533333 
0.4 0 0.6 0.333333 0 0.666667 0.266667 0 0.733333 
0.2 0 0.8 0.133333 0 0.866667 0.0666667 0 0.933333 
0.0583333 0 0.85 0.183333 0 0.55 0.388889 0 0.255556 
0.05 0 0.05 0.672222 0 0.138889 0.85 0 0.0583333 
0.756319 0 0.0880359 0.236458 0 0.636458 0.112121 0 0.65 
0.0919115 0 0.751798 0.0848485 0 0.55 0.193939 0 0.35 
0.35 0 0.125845 0.535069 0 0.268403 0.401736 0 0.401736 
0.725327 0 0.191993 0.631293 0 0.232923 0.55 0 0.114222 
0.65 0 0.0622222 0.801557 0 0.13489 0.300276 0 0.537695 
0.044912 0 0.65 0.171419 0 0.616871 0.181217 0 0.706832 
0.13463 0 0.801296 0.134091 0 0.447107 0.0905244 0 0.35 
0.35 0 0.0529899 0.25 0 0.0927212 0.144959 0 0.0949592 
0.589855 0 0.323188 0.495796 0 0.362462 0.456522 0 0.456522 
0.382681 0 0.50535 0.55 0 0.0461675 0.603383 0 0.16485 
0.45 0 0.0899419 0.331697 0 0.598364 0.244747 0 0.571814 
0.134091 0 0.510337 0.0577546 0 0.45 0.142232 0 0.385128 
0.200095 0 0.216594 0.0743059 0 0.15 0.425345 0 0.326006 
0.479809 0 0.185238 0.198548 0 0.143982 0.279503 0 0.17858 
0.348287 0 0.197044 0.282724 0 0.287252 0.344342 0 0.342299 
0.306364 0 0.436401 0.142232 0 0.280769 0.124743 0 0.206827 
0.0669451 0 0.259537 0.54592 0 0.201252 0.462441 0 0.25672 
0.416139 0 0.152844 0.235398 0 0.482965 0.237802 0 0.40927 
0.213914 0 0.284077 1 0 0.1 1 0 0.2 
1 0 0.3 1 0 0.4 1 0 0.5 
1 0 0.6 1 0 0.7 1 0 0.8 
1 0 0.9 0.9 0 1 0.8 0 1 
0.7 0 1 0.6 0 1 0.5 0 1 
0.4 0 1 0.3 0 1 0.2 0 1 
0.1 0 1 0.941667 0 0.15 0.816667 0 0.45 
0.611111 0 0.744444 0.95 0 0.95 0.233333 0 0.9 
0.15 0 0.941667 0.422222 0 0.822222 0.763542 0 0.363542 
0.887879 0 0.35 0.908088 0 0.248202 0.915152 0 0.45 
0.806061 0 0.65 0.65 0 0.874155 0.519097 0 0.652431 
0.25 0 0.961111 0.35 0 0.903472 0.356566 0 0.756566 
0.45 0 0.915972 0.699724 0 0.462305 0.955088 0 0.35 
0.828581 0 0.383129 0.818783 0 0.293168 0.86537 0 0.198704 
0.865909 0 0.552893 0.909476 0 0.65 0.65 0 0.94701 
0.75 0 0.907279 0.855041 0 0.905041 0.469738 0 0.603071 
0.562315 0 0.562315 0.452069 0 0.726719 0.348962 0 0.829826 
0.538243 0 0.838836 0.568095 0 0.919811 0.668303 0 0.401637 
0.755253 0 0.428186 0.617032 0 0.483699 0.689223 0 0.592224 
0.671946 0 0.525444 0.769396 0 0.535857 0.865909 0 0.489663 
0.942245 0 0.55 0.857768 0 0.614872 0.799905 0 0.783406 
0.925694 0 0.85 0.405238 0 0.671905 0.532045 0 0.731497 
0.275665 0 0.808999 0.47642 0 0.857154 0.488575 0 0.787394 
0.610757 0 0.640968 0.756641 0 0.602914 0.710387 0 0.700939 
0.801452 0 0.856018 0.720497 0 0.82142 0.651713 0 0.802956 
0.857768 0 0.719231 0.875257 0 0.793173 0.933055 0 0.740463 
0.292546 0 0.872198 0.647553 0 0.692581 0.779603 0 0.715624 
0.9 1 0 0.8 1 0 0.7 1 0 
0.6 1 0 0.5 1 0 0.4 1 0 
0.3 1 0 0.2 1 0 0.1 1 0 
0 1 0.1 0 1 0.2 0 1 0.3 
0 1 0.4 0 1 0.5 0 1 0.6 
0 1 0.7 0 1 0.8 0 1 0.9 
0.0666667 1 0.933333 0.133333 1 0.866667 0.2 1 0.8 
0.266667 1 0.733333 0.333333 1 0.666667 0.4 1 0.6 
0.466667 1 0.533333 0.533333 1 0.466667 0.6 1 0.4 
0.666667 1 0.333333 0.733333 1 0.266667 0.8 1 0.2 
0.866667 1 0.133333 0.933333 1 0.0666667 0.85 1 0.0583333 
0.55 1 0.183333 0.255556 1 0.388889 0.05 1 0.05 
0.138889 1 0.672222 0.0583333 1 0.85 0.0880359 1 0.756319 
0.636458 1 0.236458 0.65 1 0.112121 0.751798 1 0.0919115 
0.55 1 0.0848485 0.35 1 0.193939 0.125845 1 0.35 
0.268403 1 0.535069 0.401736 1 0.401736 0.191993 1 0.725327 
0.232923 1 0.631293 0.114222 1 0.55 0.0622222 1 0.65 
0.13489 1 0.801557 0.537695 1 0.300276 0.65 1 0.044912 
0.616871 1 0.171419 0.706832 1 0.181217 0.801296 1 0.13463 
0.447107 1 0.134091 0.35 1 0.0905244 0.0529899 1 0.35 
0.0927212 1 0.25 0.0949592 1 0.144959 0.323188 1 0.589855 
0.362462 1 0.495796 0.456522 1 0.456522 0.50535 1 0.382681 
[...]
CELL_DATA 1872
FIELD FieldData 1
surface_field 1 1872 double
0.0136441 0.0136441 0.0136441 0.0136441 0.0136441 0.0136441 0.0136441 0.0136441 0.0136441 
0.0136441 0.0136441 0.0136441 0.0136441 0.0136441 0.0136441 0.0136441 0.0136441 0.0136441 
0.0136441 0.0136441 0.0136441 0.0136441 0.0136441 0.0136441 0.0136441 0.0136441 0.0136441 
0.0136441 0.0136441 0.0136441 0.0136441 0.0136441 0.0136441 0.0136441 0.0136441 0.0136441 
0.0136441 0.0136441 0.0136441 0.0136441 0.0136441 0.0136441 0.0136441 0.0136441 0.0136441 
0.0136441 0.0136441 0.0136441 0.0136441 0.0136441 0.0136441 0.0136441 0.0136441 0.0136441 
0.0136441 0.0136441 0.0136441 0.0136441 0.0136441 0.0136441 0.0136441 0.0136441 0.0136441 
0.0136441 0.0136441 0.0136441 0.0136441 0.0136441 0.0136441 0.0136441 0.0136441 0.0136441 
0.0136441 0.0136441 0.0136441 0.0136441 0.0136441 0.0136441 0.0136441 0.0136441 0.0136441 
0.0136441 0.0136441 0.0136441 0.0136441 0.0136441 0.0136441 0.0136441 0.0136441 0.0136441 
0.0136441 0.0136441 0.0136441 0.0136441 0.0136441 0.0136441 0.0136441 0.0136441 0.0136441 
0.0136441 0.0136441 0.0136441 0.0136441 0.0136441 0.0136441 0.0136441 0.0136441 0.0136441 
0.0136441 0.0136441 0.0136441 0.0136441 0.0136441 0.0136441 0.0136441 0.0136441 0.0136441 
0.0136441 0.0136441 0.0136441 0.0136441 0.0136441 0.0136441 0.0136441 0.0136441 0.0136441 
0.0136441 0.0136441 0.0136441 0.0136441 0.0136441 0.0136441 0.0136441 0.0136441 0.0136441 
0.0136441 0.0136441 0.0136441 0.0136441 0.0136441 0.0136441 0.0136441 0.0136441 0.0136441 
0.0136441 0.0136441 0.0136441 0.0136441 0.0136441 0.0136441 0.0136441 0.0136441 0.0136441 
0.0136441 0.0136441 0.218305 0.218305 0.218305 0.218305 0.218305 0.218305 0.218305 
0.218305 0.218305 0.218305 0.218305 0.218305 0.218305 0.218305 0.218305 0.218305 
0.218305 0.218305 0.218305 0.218305 0.218305 0.218305 0.218305 0.218305 0.218305 
0.218305 0.218305 0.218305 0.218305 0.218305 0.218305 0.218305 0.218305 0.218305 
0.218305 0.218305 0.218305 0.218305 0.218305 0.218305 0.218305 0.218305 0.218305 
0.218305 0.218305 0.218305 0.218305 0.218305 0.218305 0.218305 0.218305 0.218305 
0.218305 0.218305 0.218305 0.218305 0.218305 0.218305 0.218305 0.218305 0.218305 
0.218305 0.218305 0.218305 0.218305 0.218305 0.218305 0.218305 0.218305 0.218305 
0.218305 0.218305 0.218305 0.218305 0.218305 0.218305 0.218305 0.218305 0.218305 
0.218305 0.218305 0.218305 0.218305 0.218305 0.218305 0.218305 0.218305 0.218305 
0.218305 0.218305 0.218305 0.218305 0.218305 0.218305 0.218305 0.218305 0.218305 
0.218305 0.218305 0.218305 0.218305 0.218305 0.218305 0.218305 0.218305 0.218305 
0.218305 0.218305 0.218305 0.218305 0.218305 0.218305 0.218305 0.218305 0.218305 
0.218305 0.218305 0.218305 0.218305 0.218305 0.218305 0.218305 0.218305 0.218305 
0.218305 0.218305 0.218305 0.218305 0.218305 0.218305 0.218305 0.218305 0.218305 
0.218305 0.218305 0.218305 0.218305 0.218305 0.218305 0.218305 0.218305 0.218305 
0.218305 0.218305 0.218305 0.218305 0.218305 0.218305 0.218305 0.218305 0.218305 
0.218305 0.218305 0.218305 0.218305 0.218305 0.218305 0.97075 0.97075 0.97075 
0.97075 0.97075 0.97075 0.97075 0.97075 0.97075 0.97075 0.97075 0.97075 
0.97075 0.97075 0.97075 0.97075 0.97075 0.97075 0.97075 0.97075 0.97075 
0.97075 0.97075 0.97075 0.97075 0.97075 0.97075 0.97075 0.97075 0.97075 
0.97075 0.97075 0.97075 0.97075 0.97075 0.97075 0.97075 0.97075 0.97075 
0.97075 0.97075 0.97075 0.97075 0.97075 0.97075 0.97075 0.97075 0.97075 
0.97075 0.97075 0.97075 0.97075 0.97075 0.97075 0.97075 0.97075 0.97075 
0.97075 0.97075 0.97075 0.97075 0.97075 0.97075 0.97075 0.97075 0.97075 
0.97075 0.97075 0.97075 0.97075 0.97075 0.97075 0.97075 0.97075 0.97075 
0.97075 0.97075 0.97075 0.97075 0.97075 0.97075 0.97075 0.97075 0.97075 
0.97075 0.97075 0.97075 0.97075 0.97075 0.97075 0.97075 0.97075 0.97075 
0.97075 0.97075 0.97075 0.97075 0.97075 0.97075 0.97075 0.97075 0.97075 
0.97075 0.97075 0.97075 0.97075 0.97075 0.97075 0.97075 0.97075 0.97075 
0.97075 0.97075 0.97075 0.97075 0.97075 0.97075 0.97075 0.97075 0.97075 
0.97075 0.97075 0.97075 0.97075 0.97075 0.97075 0.97075 0.97075 0.97075 
0.97075 0.97075 0.97075 0.97075 0.97075 0.97075 0.97075 0.97075 0.97075 
0.97075 0.97075 0.97075 0.97075 0.97075 0.97075 0.97075 0.97075 0.97075 
0.97075 0.97075 0.97075 0.97075 0.97075 0.97075 0.97075 0.97075 1.17541 
1.17541 1.17541 1.17541 1.17541 1.17541 1.17541 1.17541 1.17541 1.17541 
1.17541 1.17541 1.17541 1.17541 1.17541 1.17541 1.17541 1.17541 1.17541 
1.17541 1.17541 1.17541 1.17541 1.17541 1.17541 1.17541 1.17541 1.17541 
1.17541 1.17541 1.17541 1.17541 1.17541 1.17541 1.17541 1.17541 1.17541 
1.17541 1.17541 1.17541 1.17541 1.17541 1.17541 1.17541 1.17541 1.17541 
1.17541 1.17541 1.17541 1.17541 1.17541 1.17541 1.17541 1.17541 1.17541 
1.17541 1.17541 1.17541 1.17541 1.17541 1.17541 1.17541 1.17541 1.17541 
1.17541 1.17541 1.17541 1.17541 1.17541 1.17541 1.17541 1.17541 1.17541 
1.17541 1.17541 1.17541 1.17541 1.17541 1.17541 1.17541 1.17541 1.17541 
1.17541 1.17541 1.17541 1.17541 1.17541 1.17541 1.17541 1.17541 1.17541 
1.17541 1.17541 1.17541 1.17541 1.17541 1.17541 1.17541 1.17541 1.17541 
1.17541 1.17541 1.17541 1.17541 1.17541 1.17541 1.17541 1.17541 1.17541 
1.17541 1.17541 1.17541 1.17541 1.17541 1.17541 1.17541 1.17541 1.17541 
1.17541 1.17541 1.17541 1.17541 1.17541 1.17541 1.17541 1.17541 1.17541 
1.17541 1.17541 1.17541 1.17541 1.17541 1.17541 1.17541 1.17541 1.17541 
1.17541 1.17541 1.17541 1.17541 1.17541 1.17541 1.17541 1.17541 1.17541 
1.17541 1.17541 1.17541 1.17541 1.17541 1.17541 1.17541 1.17541 1.17541 
1.17541 1.17541 1.17541 0.0136441 0.0136441 0.0136441 0.0136441 0.0136441 0.0136441 
0.0136441 0.0136441 0.0136441 0.0136441 0.0136441 0.0136441 0.0136441 0.0136441 0.0136441 
0.0136441 0.0136441 0.0136441 0.0136441 0.0136441 0.0136441 0.0136441 0.0136441 0.0136441 
0.0136441 0.0136441 0.0136441 0.0136441 0.0136441 0.0136441 0.0136441 0.0136441 0.0136441 
0.0136441 0.0136441 0.0136441 0.0136441 0.0136441 0.0136441 0.0136441 0.0136441 0.0136441 
0.0136441 0.0136441 0.0136441 0.0136441 0.0136441 0.0136441 0.0136441 0.0136441 0.0136441 
0.0136441 0.0136441 0.0136441 0.0136441 0.0136441 0.0136441 0.0136441 0.0136441 0.0136441 
0.0136441 0.0136441 0.0136441 0.0136441 0.0136441 0.0136441 0.0136441 0.0136441 0.0136441 
0.0136441 0.0136441 0.0136441 0.0136441 0.0136441 0.0136441 0.0136441 0.0136441 0.0136441 
0.0136441 0.0136441 0.0136441 0.0136441 0.0136441 0.0136441 0.0136441 0.0136441 0.0136441 
0.0136441 0.0136441 0.0136441 0.0136441 0.0136441 0.0136441 0.0136441 0.0136441 0.0136441 
0.0136441 0.0136441 0.0136441 0.0136441 0.0136441 0.0136441 0.0136441 0.0136441 0.0136441 
0.0136441 0.0136441 0.0136441 0.0136441 0.0136441 0.0136441 0.0136441 0.0136441 0.0136441 
0.0136441 0.0136441 0.0136441 0.0136441 0.0136441 0.0136441 0.0136441 0.0136441 0.0136441 
0.0136441 0.0136441 0.0136441 0.0136441 0.0136441 0.0136441 0.0136441 0.0136441 0.0136441 
0.0136441 0.0136441 0.0136441 0.0136441 0.0136441 0.0136441 0.0136441 0.0136441 0.0136441 
0.0136441 0.0136441 0.0136441 0.0136441 0.0136441 0.0136441 0.0136441 0.0136441 0.0136441 
0.0136441 0.0136441 0.0136441 0.0136441 0.0136441 0.218305 0.218305 0.218305 0.218305 
0.218305 0.218305 0.218305 0.218305 0.218305 0.218305 0.218305 0.218305 0.218305 
0.218305 0.218305 0.218305 0.218305 0.218305 0.218305 0.218305 0.218305 0.218305 
0.218305 0.218305 0.218305 0.218305 0.218305 0.218305 0.218305 0.218305 0.218305 
0.218305 0.218305 0.218305 0.218305 0.218305 0.218305 0.218305 0.218305 0.218305 
0.218305 0.218305 0.218305 0.218305 0.218305 0.218305 0.218305 0.218305 0.218305 
0.218305 0.218305 0.218305 0.218305 0.218305 0.218305 0.218305 0.218305 0.218305 
0.218305 0.218305 0.218305 0.218305 0.218305 0.218305 0.218305 0.218305 0.218305 
0.218305 0.218305 0.218305 0.218305 0.218305 0.218305 0.218305 0.218305 0.218305 
0.218305 0.218305 0.218305 0.218305 0.218305 0.218305 0.218305 0.218305 0.218305 
0.218305 0.218305 0.218305 0.218305 0.218305 0.218305 0.218305 0.218305 0.218305 
0.218305 0.218305 0.218305 0.218305 0.218305 0.218305 0.218305 0.218305 0.218305 
0.218305 0.218305 0.218305 0.218305 0.218305 0.218305 0.218305 0.218305 0.218305 
0.218305 0.218305 0.218305 0.218305 0.218305 0.218305 0.218305 0.218305 0.218305 
0.218305 0.218305 0.218305 0.218305 0.218305 0.218305 0.218305 0.218305 0.218305 
0.218305 0.218305 0.218305 0.218305 0.218305 0.218305 0.218305 0.218305 0.218305 
0.218305 0.218305 0.218305 0.218305 0.218305 0.218305 0.218305 0.218305 0.218305 
0.218305 0.218305 0.218305 0.218305 0.218305 0.218305 0.218305 0.218305 0.218305 
0.0136441 0.0136441 0.0136441 0.0136441 0.0136441 0.0136441 0.0136441 0.0136441 0.0136441 
0.0136441 0.0136441 0.0136441 0.0136441 0.0136441 0.0136441 0.0136441 0.0136441 0.0136441 
0.0136441 0.0136441 0.0136441 0.0136441 0.0136441 0.0136441 0.0136441 0.0136441 0.0136441 
0.0136441 0.0136441 0.0136441 0.0136441 0.0136441 0.0136441 0.0136441 0.0136441 0.0136441 
0.0136441 0.0136441 0.0136441 0.0136441 0.0136441 0.0136441 0.0136441 0.0136441 0.0136441 
0.0136441 0.0136441 0.0136441 0.0136441 0.0136441 0.0136441 0.0136441 0.0136441 0.0136441 
0.0136441 0.0136441 0.0136441 0.0136441 0.0136441 0.0136441 0.0136441 0.0136441 0.0136441 
0.0136441 0.0136441 0.0136441 0.0136441 0.0136441 0.0136441 0.0136441 0.0136441 0.0136441 
0.0136441 0.0136441 0.0136441 0.0136441 0.0136441 0.0136441 0.0136441 0.0136441 0.0136441 
0.0136441 0.0136441 0.0136441 0.0136441 0.0136441 0.0136441 0.0136441 0.0136441 0.0136441 
0.0136441 0.0136441 0.0136441 0.0136441 0.0136441 0.0136441 0.0136441 0.0136441 0.0136441 
0.0136441 0.0136441 0.0136441 0.0136441 0.0136441 0.0136441 0.0136441 0.0136441 0.0136441 
0.0136441 0.0136441 0.0136441 0.0136441 0.0136441 0.0136441 0.0136441 0.0136441 0.0136441 
0.0136441 0.0136441 0.0136441 0.0136441 0.0136441 0.0136441 0.0136441 0.0136441 0.0136441 
0.0136441 0.0136441 0.0136441 0.0136441 0.0136441 0.0136441 0.0136441 0.0136441 0.0136441 
0.0136441 0.0136441 0.0136441 0.0136441 0.0136441 0.0136441 0.0136441 0.0136441 0.0136441 
0.0136441 0.0136441 0.0136441 0.0136441 0.0136441 0.0136441 0.0136441 0.0136441 0.0136441 
0.0136441 0.0136441 0.218305 0.218305 0.218305 0.218305 0.218305 0.218305 0.218305 
0.218305 0.218305 0.218305 0.218305 0.218305 0.218305 0.218305 0.218305 0.218305 
0.218305 0.218305 0.218305 0.218305 0.218305 0.218305 0.218305 0.218305 0.218305 
0.218305 0.218305 0.218305 0.218305 0.218305 0.218305 0.218305 0.218305 0.218305 
0.218305 0.218305 0.218305 0.218305 0.218305 0.218305 0.218305 0.218305 0.218305 
0.218305 0.218305 0.218305 0.218305 0.218305 0.218305 0.218305 0.218305 0.218305 
0.218305 0.218305 0.218305 0.218305 0.218305 0.218305 0.218305 0.218305 0.218305 
0.218305 0.218305 0.218305 0.218305 0.218305 0.218305 0.218305 0.218305 0.218305 
0.218305 0.218305 0.218305 0.218305 0.218305 0.218305 0.218305 0.218305 0.218305 
0.218305 0.218305 0.218305 0.218305 0.218305 0.218305 0.218305 0.218305 0.218305 
0.218305 0.218305 0.218305 0.218305 0.218305 0.218305 0.218305 0.218305 0.218305 
0.218305 0.218305 0.218305 0.218305 0.218305 0.218305 0.218305 0.218305 0.218305 
0.218305 0.218305 0.218305 0.218305 0.218305 0.218305 0.218305 0.218305 0.218305 
0.218305 0.218305 0.218305 0.218305 0.218305 0.218305 0.218305 0.218305 0.218305 
0.218305 0.218305 0.218305 0.218305 0.218305 0.218305 0.218305 0.218305 0.218305 
0.218305 0.218305 0.218305 0.218305 0.218305 0.218305 0.218305 0.218305 0.218305 
0.218305 0.218305 0.218305 0.218305 0.218305 0.218305 0.218305 0.218305 0.218305 
0.218305 0.218305 0.218305 0.218305 0.218305 0.218305 0.106345 0.106345 0.106345 
0.106345 0.106345 0.106345 0.106345 0.106345 0.106345 0.106345 0.106345 0.106345 
0.106345 0.106345 0.106345 0.106345 0.106345 0.106345 0.106345 0.106345 0.106345 
0.106345 0.106345 0.106345 0.106345 0.106345 0.106345 0.106345 0.106345 0.106345 
0.106345 0.106345 0.106345 0.106345 0.106345 0.106345 0.106345 0.106345 0.106345 
0.106345 0.106345 0.106345 0.106345 0.106345 0.106345 0.106345 0.106345 0.106345 
0.106345 0.106345 0.106345 0.106345 0.106345 0.106345 0.106345 0.106345 0.106345 
0.106345 0.106345 0.106345 0.106345 0.106345 0.106345 0.106345 0.106345 0.106345 
0.106345 0.106345 0.106345 0.106345 0.106345 0.106345 0.106345 0.106345 0.106345 
0.106345 0.106345 0.106345 0.106345 0.106345 0.106345 0.106345 0.106345 0.106345 
0.106345 0.106345 0.106345 0.106345 0.106345 0.106345 0.106345 0.106345 0.106345 
0.106345 0.106345 0.106345 0.106345 0.106345 0.106345 0.106345 0.106345 0.106345 
0.106345 0.106345 0.106345 0.106345 0.106345 0.106345 0.106345 0.106345 0.106345 
0.106345 0.106345 0.106345 0.106345 0.106345 0.106345 0.106345 0.106345 0.106345 
0.106345 0.106345 0.106345 0.106345 0.106345 0.106345 0.106345 0.106345 0.106345 
0.106345 0.106345 0.106345 0.106345 0.106345 0.106345 0.106345 0.106345 0.106345 
0.106345 0.106345 0.106345 0.106345 0.106345 0.106345 0.106345 0.106345 0.106345 
0.106345 0.106345 0.106345 0.106345 0.106345 0.106345 0.106345 0.106345 0.42538 
0.42538 0.42538 0.42538 0.42538 0.42538 0.42538 0.42538 0.42538 0.42538 
0.42538 0.42538 0.42538 0.42538 0.42538 0.42538 0.42538 0.42538 0.42538 
0.42538 0.42538 0.42538 0.42538 0.42538 0.42538 0.42538 0.42538 0.42538 
0.42538 0.42538 0.42538 0.42538 0.42538 0.42538 0.42538 0.42538 0.42538 
0.42538 0.42538 0.42538 0.42538 0.42538 0.42538 0.42538 0.42538 0.42538 
0.42538 0.42538 0.42538 0.42538 0.42538 0.42538 0.42538 0.42538 0.42538 
0.42538 0.42538 0.42538 0.42538 0.42538 0.42538 0.42538 0.42538 0.42538 
0.42538 0.42538 0.42538 0.42538 0.42538 0.42538 0.42538 0.42538 0.42538 
0.42538 0.42538 0.42538 0.42538 0.42538 0.42538 0.42538 0.42538 0.42538 
0.42538 0.42538 0.42538 0.42538 0.42538 0.42538 0.42538 0.42538 0.42538 
0.42538 0.42538 0.42538 0.42538 0.42538 0.42538 0.42538 0.42538 0.42538 
0.42538 0.42538 0.42538 0.42538 0.42538 0.42538 0.42538 0.42538 0.42538 
0.42538 0.42538 0.42538 0.42538 0.42538 0.42538 0.42538 0.42538 0.42538 
0.42538 0.42538 0.42538 0.42538 0.42538 0.42538 0.42538 0.42538 0.42538 
0.42538 0.42538 0.42538 0.42538 0.42538 0.42538 0.42538 0.42538 0.42538 
0.42538 0.42538 0.42538 0.42538 0.42538 0.42538 0.42538 0.42538 0.42538 
0.42538 0.42538 0.42538 0.42538 0.42538 0.42538 0.42538 0.42538 0.42538 
0.42538 0.42538 0.42538 1.21152 1.21152 1.21152 1.21152 1.21152 1.21152 
1.21152 1.21152 1.21152 1.21152 1.21152 1.21152 1.21152 1.21152 1.21152 
1.21152 1.21152 1.21152 1.21152 1.21152 1.21152 1.21152 1.21152 1.21152 
1.21152 1.21152 1.21152 1.21152 1.21152 1.21152 1.21152 1.21152 1.21152 
1.21152 1.21152 1.21152 1.21152 1.21152 1.21152 1.21152 1.21152 1.21152 
1.21152 1.21152 1.21152 1.21152 1.21152 1.21152 1.21152 1.21152 1.21152 
1.21152 1.21152 1.21152 1.21152 1.21152 1.21152 1.21152 1.21152 1.21152 
1.21152 1.21152 1.21152 1.21152 1.21152 1.21152 1.21152 1.21152 1.21152 
1.21152 1.21152 1.21152 1.21152 1.21152 1.21152 1.21152 1.21152 1.21152 
1.21152 1.21152 1.21152 1.21152 1.21152 1.21152 1.21152 1.21152 1.21152 
1.21152 1.21152 1.21152 1.21152 1.21152 1.21152 1.21152 1.21152 1.21152 
1.21152 1.21152 1.21152 1.21152 1.21152 1.21152 1.21152 1.21152 1.21152 
1.21152 1.21152 1.21152 1.21152 1.21152 1.21152 1.21152 1.21152 1.21152 
1.21152 1.21152 1.21152 1.21152 1.21152 1.21152 1.21152 1.21152 1.21152 
1.21152 1.21152 1.21152 1.21152 1.21152 1.21152 1.21152 1.21152 1.21152 
1.21152 1.21152 1.21152 1.21152 1.21152 1.21152 1.21152 1.21152 1.21152 
1.21152 1.21152 1.21152 1.21152 1.21152 1.21152 1.21152 1.21152 1.21152 
1.21152 1.21152 1.21152 1.21152 1.21152 1.53055 1.53055 1.53055 1.53055 
1.53055 1.53055 1.53055 1.53055 1.53055 1.53055 1.53055 1.53055 1.53055 
1.53055 1.53055 1.53055 1.53055 1.53055 1.53055 1.53055 1.53055 1.53055 
1.53055 1.53055 1.53055 1.53055 1.53055 1.53055 1.53055 1.53055 1.53055 
1.53055 1.53055 1.53055 1.53055 1.53055 1.53055 1.53055 1.53055 1.53055 
1.53055 1.53055 1.53055 1.53055 1.53055 1.53055 1.53055 1.53055 1.53055 
1.53055 1.53055 1.53055 1.53055 1.53055 1.53055 1.53055 1.53055 1.53055 
1.53055 1.53055 1.53055 1.53055 1.53055 1.53055 1.53055 1.53055 1.53055 
1.53055 1.53055 1.53055 1.53055 1.53055 1.53055 1.53055 1.53055 1.53055 
1.53055 1.53055 1.53055 1.53055 1.53055 1.53055 1.53055 1.53055 1.53055 
1.53055 1.53055 1.53055 1.53055 1.53055 1.53055 1.53055 1.53055 1.53055 
1.53055 1.53055 1.53055 1.53055 1.53055 1.53055 1.53055 1.53055 1.53055 
1.53055 1.53055 1.53055 1.53055 1.53055 1.53055 1.53055 1.53055 1.53055 
1.53055 1.53055 1.53055 1.53055 1.53055 1.53055 1.53055 1.53055 1.53055 
1.53055 1.53055 1.53055 1.53055 1.53055 1.53055 1.53055 1.53055 1.53055 
1.53055 1.53055 1.53055 1.53055 1.53055 1.53055 1.53055 1.53055 1.53055 
1.53055 1.53055 1.53055 1.53055 1.53055 1.53055 1.53055 1.53055 1.53055 
1.53055 1.53055 1.53055 1.53055 1.53055 1.53055 1.53055 1.53055 1.53055 

POINT_DATA 1062
NORMALS Normals float
-1 0 0 -1 0 0 -1 0 0 
-1 0 0 1 0 0 1 0 0 
1 0 0 1 0 0 0 -1 0 
0 0 -1 0 -1 0 0 0 1 
0 1 0 0 0 1 0 1 0 
0 0 -1 0 -1 0 0 0 -1 
0 1 0 0 0 -1 0 1 0 
0 0 1 0 -1 0 0 0 1 
-1 0 0 -1 0 0 -1 0 0 
-1 0 0 -1 0 0 -1 0 0 
-1 0 0 -1 0 0 -1 0 0 
-1 0 0 -1 0 0 -1 0 0 
-1 0 0 -1 0 0 -1 0 0 
-1 0 0 -1 0 0 -1 0 0 
-1 0 0 -1 0 0 -1 0 0 
-1 0 0 -1 0 0 -1 0 0 
-1 0 0 -1 0 0 -1 0 0 
-1 0 0 -1 0 0 -1 0 0 
-1 0 0 -1 0 0 -1 0 0 
-1 0 0 -1 0 0 -1 0 0 
-1 0 0 -1 0 0 -1 0 0 
-1 0 0 -1 0 0 -1 0 0 
-1 0 0 -1 0 0 -1 0 0 
-1 0 0 -1 0 0 -1 0 0 
-1 0 0 -1 0 0 -1 0 0 
-1 0 0 -1 0 0 -1 0 0 
-1 0 0 -1 0 0 -1 0 0 
-1 0 0 -1 0 0 -1 0 0 
-1 0 0 -1 0 0 -1 0 0 
-1 0 0 -1 0 0 -1 0 0 
-1 0 0 -1 0 0 -1 0 0 
-1 0 0 -1 0 0 -1 0 0 
-1 0 0 -1 0 0 -1 0 0 
-1 0 0 -1 0 0 -1 0 0 
-1 0 0 -1 0 0 -1 0 0 
-1 0 0 -1 0 0 -1 0 0 
-1 0 0 -1 0 0 -1 0 0 
-1 0 0 -1 0 0 -1 0 0 
-1 0 0 -1 0 0 -1 0 0 
-1 0 0 -1 0 0 -1 0 0 
-1 0 0 -1 0 0 -1 0 0 
-1 0 0 -1 0 0 -1 0 0 
-1 0 0 -1 0 0 -1 0 0 
-1 0 0 -1 0 0 -1 0 0 
-1 0 0 -1 0 0 -1 0 0 
-1 0 0 -1 0 0 -1 0 0 
-1 0 0 -1 0 0 -1 0 0 
-1 0 0 -1 0 0 -1 0 0 
-1 0 0 -1 0 0 -1 0 0 
-1 0 0 -1 0 0 -1 0 0 
-1 0 0 -1 0 0 -1 0 0 
-1 0 0 -1 0 0 -1 0 0 
-1 0 0 -1 0 0 -1 0 0 
-1 0 0 -1 0 0 -1 0 0 
-1 0 0 -1 0 0 -1 0 0 
-1 0 0 -1 0 0 -1 0 0 
-1 0 0 -1 0 0 -1 0 0 
-1 0 0 -1 0 0 -1 0 0 
-1 0 0 -1 0 0 -1 0 0 
-1 0 0 -1 0 0 -1 0 0 
-1 0 0 -1 0 0 -1 0 0 
-1 0 0 -1 0 0 -1 0 0 
-1 0 0 -1 0 0 -1 0 0 
-1 0 0 -1 0 0 -1 0 0 
-1 0 0 -1 0 0 -1 0 0 
-1 0 0 -1 0 0 1 0 0 
1 0 0 1 0 0 1 0 0 
1 0 0 1 0 0 1 0 0 
1 0 0 1 0 0 1 0 0 
1 0 0 1 0 0 1 0 0 
1 0 0 1 0 0 1 0 0 
1 0 0 1 0 0 1 0 0 
1 0 0 1 0 0 1 0 0 
1 0 0 1 0 0 1 0 0 
1 0 0 1 0 0 1 0 0 
1 0 0 1 0 0 1 0 0 
1 0 0 1 0 0 1 0 0 
1 0 0 1 0 0 1 0 0 
1 0 0 1 0 0 1 0 0 
1 0 0 1 0 0 1 0 0 
1 0 0 1 0 0 1 0 0 
1 0 0 1 0 0 1 0 0 
1 0 0 1 0 0 1 0 0 
1 0 0 1 0 0 1 0 0 
1 0 0 1 0 0 1 0 0 
1 0 0 1 0 0 1 0 0 
1 0 0 1 0 0 1 0 0 
1 0 0 1 0 0 1 0 0 
1 0 0 1 0 0 1 0 0 
1 0 0 1 0 0 1 0 0 
1 0 0 1 0 0 1 0 0 
1 0 0 1 0 0 1 0 0 
1 0 0 1 0 0 1 0 0 
1 0 0 1 0 0 1 0 0 
1 0 0 1 0 0 1 0 0 
1 0 0 1 0 0 1 0 0 
1 0 0 1 0 0 1 0 0 
1 0 0 1 0 0 1 0 0 
1 0 0 1 0 0 1 0 0 
1 0 0 1 0 0 1 0 0 
1 0 0 1 0 0 1 0 0 
1 0 0 1 0 0 1 0 0 
1 0 0 1 0 0 1 0 0 
1 0 0 1 0 0 1 0 0 
1 0 0 1 0 0 1 0 0 
1 0 0 1 0 0 1 0 0 
1 0 0 1 0 0 1 0 0 
1 0 0 1 0 0 1 0 0 
1 0 0 1 0 0 1 0 0 
1 0 0 1 0 0 1 0 0 
1 0 0 1 0 0 1 0 0 
1 0 0 1 0 0 1 0 0 
1 0 0 1 0 0 1 0 0 
1 0 0 1 0 0 1 0 0 
1 0 0 1 0 0 1 0 0 
1 0 0 1 0 0 1 0 0 
1 0 0 1 0 0 1 0 0 
1 0 0 1 0 0 1 0 0 
1 0 0 1 0 0 1 0 0 
1 0 0 1 0 0 1 0 0 
1 0 0 1 0 0 1 0 0 
1 0 0 1 0 0 1 0 0 
1 0 0 1 0 0 1 0 0 
1 0 0 0 -1 0 0 -1 0 
0 -1 0 0 -1 0 0 -1 0 
0 -1 0 0 -1 0 0 -1 0 
0 -1 0 0 -1 0 0 -1 0 
0 -1 0 0 -1 0 0 -1 0 
0 -1 0 0 -1 0 0 -1 0 
0 -1 0 0 -1 0 0 -1 0 
0 -1 0 0 -1 0 0 -1 0 
0 -1 0 0 -1 0 0 -1 0 
0 -1 0 0 -1 0 0 -1 0 
0 -1 0 0 -1 0 0 -1 0 
0 -1 0 0 -1 0 0 -1 0 
0 -1 0 0 -1 0 0 -1 0 
0 -1 0 0 -1 0 0 -1 0 
0 -1 0 0 -1 0 0 -1 0 
0 -1 0 0 -1 0 0 -1 0 
0 -1 0 0 -1 0 0 -1 0 
0 -1 0 0 -1 0 0 -1 0 
0 -1 0 0 -1 0 0 -1 0 
0 -1 0 0 -1 0 0 -1 0 
0 -1 0 0 -1 0 0 -1 0 
0 -1 0 0 -1 0 0 -1 0 
0 -1 0 0 -1 0 0 -1 0 
0 -1 0 0 -1 0 0 -1 0 
0 -1 0 0 -1 0 0 -1 0 
0 -1 0 0 -1 0 0 -1 0 
0 -1 0 0 -1 0 0 -1 0 
0 -1 0 0 -1 0 0 -1 0 
0 -1 0 0 -1 0 0 -1 0 