# vtk DataFile Version 3.0
vtk output
ASCII
DATASET POLYDATA
POINTS 24 float
0 0 0 0 0 1 0 1 1 
0 1 0 1 0 0 1 1 0 
1 1 1 1 0 1 0 0 0 
0 0 0 0 0 1 0 0 1 
0 1 1 0 1 1 0 1 0 
0 1 0 1 0 0 1 0 0 
1 1 0 1 1 0 1 1 1 
1 1 1 1 0 1 1 0 1 

POLYGONS 12 48
3 3 0 1 
3 1 2 3 
3 7 4 5 
3 5 6 7 
3 10 8 16 
3 16 22 10 
3 18 14 12 
3 12 20 18 
3 17 9 15 
3 15 19 17 
3 13 11 23 
3 23 21 13 

POINT_DATA 24
COLOR_SCALARS Colors 3
0 0 1 1 0 0 1 0 0 
0 0 1 0 0 1 
0 0 1 1 0 0 
1 0 0 0 0 1 
0 0 1 1 0 0 
1 0 0 1 0 0 
1 0 0 0 0 1 
0 0 1 0 0 1 
0 0 1 0 0 1 
0 0 1 1 0 0 
1 0 0 1 0 0 
1 0 0 
NORMALS Normals float
-1 0 0 -1 0 0 -1 0 0 
-1 0 0 1 0 0 1 0 0 
1 0 0 1 0 0 0 -1 0 
0 0 -1 0 -1 0 0 0 1 
0 1 0 0 0 1 0 1 0 
0 0 -1 0 -1 0 0 0 -1 
0 1 0 0 0 -1 0 1 0 
0 0 1 0 -1 0 0 0 1 

