# vtk DataFile Version 4.0
vtk output
ASCII
DATASET POLYDATA
POINTS 24 float
0 0 0 0 0 1 0 1 1 
0 1 0 1 0 0 1 1 0 
1 1 1 1 0 1 0 0 0 
0 0 0 0 0 1 0 0 1 
0 1 1 0 1 1 0 1 0 
0 1 0 1 0 0 1 0 0 
1 1 0 1 1 0 1 1 1 
1 1 1 1 0 1 1 0 1 

POLYGONS 12 48
3 3 0 1 
3 1 2 3 
3 7 4 5 
3 5 6 7 
3 10 8 16 
3 16 22 10 
3 18 14 12 
3 12 20 18 
3 17 9 15 
3 15 19 17 
3 13 11 23 
3 23 21 13 

CELL_DATA 12
COLOR_SCALARS Colors 3
0 0 1 0.0431373 0.168627 0.956863 0.698039 0.839216 0.301961 
0.870588 0.45098 0.129412 0 0 1 
0.0431373 0.168627 0.956863 0 0 1 
0.0431373 0.168627 0.956863 0.00784314 0.0352941 0.992157 
0.172549 0.568627 0.827451 0.894118 0.376471 0.105882 
1 0 0 
POINT_DATA 24
NORMALS Normals float
-1 0 0 -1 0 0 -1 0 0 
-1 0 0 1 0 0 1 0 0 
1 0 0 1 0 0 0 -1 0 
0 0 -1 0 -1 0 0 0 1 
0 1 0 0 0 1 0 1 0 
0 0 -1 0 -1 0 0 0 -1 
0 1 0 0 0 -1 0 1 0 
0 0 1 0 -1 0 0 0 1 

