# vtk DataFile Version 4.0
vtk output
ASCII
DATASET POLYDATA
POINTS 24 float
0 0 0 0 0 1 0 1 1 
0 1 0 1 0 0 1 1 0 
1 1 1 1 0 1 0 0 0 
0 0 0 0 0 1 0 0 1 
0 1 1 0 1 1 0 1 0 
0 1 0 1 0 0 1 0 0 
1 1 0 1 1 0 1 1 1 
1 1 1 1 0 1 1 0 1 

POLYGONS 12 48
3 3 0 1 
3 1 2 3 
3 7 4 5 
3 5 6 7 
3 10 8 16 
3 16 22 10 
3 18 14 12 
3 12 20 18 
3 17 9 15 
3 15 19 17 
3 13 11 23 
3 23 21 13 

CELL_DATA 12
FIELD FieldData 1
surface_field 1 12 double
0.0136441 0.218305 0.97075 1.17541 0.0136441 0.218305 0.0136441 0.218305 0.106345 
0.42538 1.21152 1.53055 
POINT_DATA 24
NORMALS Normals float
-1 0 0 -1 0 0 -1 0 0 
-1 0 0 1 0 0 1 0 0 
1 0 0 1 0 0 0 -1 0 
0 0 -1 0 -1 0 0 0 1 
0 1 0 0 0 1 0 1 0 
0 0 -1 0 -1 0 0 0 -1 
0 1 0 0 0 -1 0 1 0 
0 0 1 0 -1 0 0 0 1 

