# vtk DataFile Version 4.0
vtk output
ASCII
DATASET POLYDATA
POINTS 66 float
0.05 0.3 1.05 0.05 0.3 -0.7 0.05 0.0129874 -0.56679 
0.085 0.3 -0.7 0.085 0.0129874 -0.56679 0.085 0.3 1.05 
0.05 -0.230329 -0.187437 0.085 -0.230329 -0.187437 0.05 -0.39291 0.380303 
0.085 -0.39291 0.380303 0.05 -0.45 1.05 0.085 -0.45 1.05 
0.05 -0.39291 1.7197 0.085 -0.39291 1.7197 0.05 -0.230329 2.28744 
0.085 -0.230329 2.28744 0.05 0.0129874 2.66679 0.085 0.0129874 2.66679 
0.05 0.3 2.8 0.085 0.3 2.8 0.05 0.587013 2.66679 
0.085 0.587013 2.66679 0.05 0.830329 2.28744 0.085 0.830329 2.28744 
0.05 0.99291 1.7197 0.085 0.99291 1.7197 0.05 1.05 1.05 
0.085 1.05 1.05 0.05 0.99291 0.380303 0.085 0.99291 0.380303 
0.05 0.830329 -0.187437 0.085 0.830329 -0.187437 0.05 0.587013 -0.56679 
0.085 0.587013 -0.56679 0.05 0.3 -0.7 0.05 0.0129874 -0.56679 
0.085 0.3 -0.7 0.085 0.0129874 -0.56679 0.05 -0.230329 -0.187437 
0.085 -0.230329 -0.187437 0.05 -0.39291 0.380303 0.085 -0.39291 0.380303 
0.05 -0.45 1.05 0.085 -0.45 1.05 0.05 -0.39291 1.7197 
0.085 -0.39291 1.7197 0.05 -0.230329 2.28744 0.085 -0.230329 2.28744 
0.05 0.0129874 2.66679 0.085 0.0129874 2.66679 0.05 0.3 2.8 
0.085 0.3 2.8 0.05 0.587013 2.66679 0.085 0.587013 2.66679 
0.05 0.830329 2.28744 0.085 0.830329 2.28744 0.05 0.99291 1.7197 
0.085 0.99291 1.7197 0.05 1.05 1.05 0.085 1.05 1.05 
0.05 0.99291 0.380303 0.085 0.99291 0.380303 0.05 0.830329 -0.187437 
0.085 0.830329 -0.187437 0.05 0.587013 -0.56679 0.085 0.587013 -0.56679 

POLYGONS 64 256
3 0 1 2 
3 4 35 34 
3 34 3 4 
3 5 37 36 
3 0 2 6 
3 7 38 35 
3 35 4 7 
3 5 39 37 
3 0 6 8 
3 9 40 38 
3 38 7 9 
3 5 41 39 
3 0 8 10 
3 11 42 40 
3 40 9 11 
3 5 43 41 
3 0 10 12 
3 13 44 42 
3 42 11 13 
3 5 45 43 
3 0 12 14 
3 15 46 44 
3 44 13 15 
3 5 47 45 
3 0 14 16 
3 17 48 46 
3 46 15 17 
3 5 49 47 
3 0 16 18 
3 19 50 48 
3 48 17 19 
3 5 51 49 
3 0 18 20 
3 21 52 50 
3 50 19 21 
3 5 53 51 
3 0 20 22 
3 23 54 52 
3 52 21 23 
3 5 55 53 
3 0 22 24 
3 25 56 54 
3 54 23 25 
3 5 57 55 
3 0 24 26 
3 27 58 56 
3 56 25 27 
3 5 59 57 
3 0 26 28 
3 29 60 58 
3 58 27 29 
3 5 61 59 
3 0 28 30 
3 31 62 60 
3 60 29 31 
3 5 63 61 
3 0 30 32 
3 33 64 62 
3 62 31 33 
3 5 65 63 
3 0 32 1 
3 3 34 64 
3 64 33 3 
3 5 36 65 

POINT_DATA 66
NORMALS Normals float
-1 0 0 -1 0 0 -1 0 0 
0 0.152889 -0.988243 0 -0.58176 -0.813361 1 0 0 
-1 0 0 0 -0.889988 -0.455985 -1 0 0 
0 -0.97711 -0.212733 -1 0 0 0 -0.999597 -0.0284044 
-1 0 0 0 -0.988835 0.149014 -1 0 0 
0 -0.930241 0.36695 -1 0 0 0 -0.727136 0.686494 
-1 0 0 0 -0.15289 0.988243 -1 0 0 
0 0.58176 0.813361 -1 0 0 0 0.889988 0.455983 
-1 0 0 0 0.97711 0.212734 -1 0 0 
0 0.999597 0.0284044 -1 0 0 0 0.988835 -0.149014 
-1 0 0 0 0.930241 -0.366949 -1 0 0 
0 0.727135 -0.686494 0 -0.15289 -0.988243 0 -0.727135 -0.686494 
1 0 0 1 0 0 0 -0.930241 -0.36695 
1 0 0 0 -0.988835 -0.149014 1 0 0 
0 -0.999597 0.0284044 1 0 0 0 -0.97711 0.212734 
1 0 0 0 -0.889988 0.455984 1 0 0 
0 -0.58176 0.813361 1 0 0 0 0.152889 0.988243 
1 0 0 0 0.727136 0.686493 1 0 0 
0 0.930241 0.366949 1 0 0 0 0.988835 0.149014 
1 0 0 0 0.999597 -0.0284044 1 0 0 
0 0.97711 -0.212733 1 0 0 0 0.889988 -0.455984 
1 0 0 0 0.581759 -0.813361 1 0 0 

FIELD FieldData 1
my_field 1 66 double
1.19292 1.19292 1.20573 1.3179 1.62563 1.3179 1.21993 1.45051 1.15534 
1.16035 1.13279 1.0751 1.15534 1.16035 1.21993 1.45051 1.20573 1.62563 
1.19292 1.3179 1.0824 0.902456 1.00774 0.681662 0.967386 0.577466 0.954762 
0.547018 0.967386 0.577466 1.00774 0.681662 1.0824 0.902456 1.19292 1.20573 
1.3179 1.62563 1.21993 1.45051 1.15534 1.16035 1.13279 1.0751 1.15534 
1.16035 1.21993 1.45051 1.20573 1.62563 1.19292 1.3179 1.0824 0.902456 
1.00774 0.681662 0.967386 0.577466 0.954762 0.547018 0.967386 0.577466 1.00774 
0.681662 1.0824 0.902456 
