# vtk DataFile Version 3.0
vtk output
ASCII
DATASET POLYDATA
POINTS 482 float
0 1 0 0.191342 0.980785 0.0380602 0.19509 0.980785 0 
0.37533 0.92388 0.0746578 0.382683 0.92388 0 0.544895 0.83147 0.108386 
0.55557 0.83147 0 0.69352 0.707107 0.13795 0.707107 0.707107 0 
0.815493 0.55557 0.162212 0.83147 0.55557 0 0.906127 0.382683 0.18024 
0.92388 0.382683 0 0.96194 0.19509 0.191342 0.980785 0.19509 0 
0.980785 0 0.19509 1 0 0 0.96194 -0.19509 0.191342 
0.980785 -0.19509 0 0.906127 -0.382683 0.18024 0.92388 -0.382683 0 
0.815493 -0.55557 0.162212 0.83147 -0.55557 0 0.69352 -0.707107 0.13795 
0.707107 -0.707107 0 0.544895 -0.83147 0.108386 0.55557 -0.83147 0 
0.37533 -0.92388 0.0746578 0.382683 -0.92388 0 0.191342 -0.980785 0.0380602 
0.19509 -0.980785 0 0 -1 0 0.18024 0.980785 0.0746578 
0.353553 0.92388 0.146447 0.51328 0.83147 0.212608 0.653282 0.707107 0.270598 
0.768178 0.55557 0.31819 0.853553 0.382683 0.353553 0.906127 0.19509 0.37533 
0.92388 0 0.382683 0.906127 -0.19509 0.37533 0.853553 -0.382683 0.353553 
0.768178 -0.55557 0.31819 0.653282 -0.707107 0.270598 0.51328 -0.83147 0.212608 
0.353553 -0.92388 0.146447 0.18024 -0.980785 0.0746578 0.162212 0.980785 0.108386 
0.31819 0.92388 0.212608 0.46194 0.83147 0.308658 0.587938 0.707107 0.392847 
0.691342 0.55557 0.46194 0.768178 0.382683 0.51328 0.815493 0.19509 0.544895 
0.83147 0 0.55557 0.815493 -0.19509 0.544895 0.768178 -0.382683 0.51328 
0.691342 -0.55557 0.46194 0.587938 -0.707107 0.392847 0.46194 -0.83147 0.308658 
0.31819 -0.92388 0.212608 0.162212 -0.980785 0.108386 0.13795 0.980785 0.13795 
0.270598 0.92388 0.270598 0.392847 0.83147 0.392847 0.5 0.707107 0.5 
0.587938 0.55557 0.587938 0.653282 0.382683 0.653282 0.69352 0.19509 0.69352 
0.707107 0 0.707107 0.69352 -0.19509 0.69352 0.653282 -0.382683 0.653282 
0.587938 -0.55557 0.587938 0.5 -0.707107 0.5 0.392847 -0.83147 0.392847 
0.270598 -0.92388 0.270598 0.13795 -0.980785 0.13795 0.108386 0.980785 0.162212 
0.212608 0.92388 0.31819 0.308658 0.83147 0.46194 0.392847 0.707107 0.587938 
0.46194 0.55557 0.691342 0.51328 0.382683 0.768178 0.544895 0.19509 0.815493 
0.55557 0 0.83147 0.544895 -0.19509 0.815493 0.51328 -0.382683 0.768178 
0.46194 -0.55557 0.691342 0.392847 -0.707107 0.587938 0.308658 -0.83147 0.46194 
0.212608 -0.92388 0.31819 0.108386 -0.980785 0.162212 0.0746578 0.980785 0.18024 
0.146447 0.92388 0.353553 0.212608 0.83147 0.51328 0.270598 0.707107 0.653282 
0.31819 0.55557 0.768178 0.353553 0.382683 0.853553 0.37533 0.19509 0.906127 
0.382683 0 0.92388 0.37533 -0.19509 0.906127 0.353553 -0.382683 0.853553 
0.31819 -0.55557 0.768178 0.270598 -0.707107 0.653282 0.212608 -0.83147 0.51328 
0.146447 -0.92388 0.353553 0.0746578 -0.980785 0.18024 0.0380602 0.980785 0.191342 
0.0746578 0.92388 0.37533 0.108386 0.83147 0.544895 0.13795 0.707107 0.69352 
0.162212 0.55557 0.815493 0.18024 0.382683 0.906127 0.191342 0.19509 0.96194 
0.19509 0 0.980785 0.191342 -0.19509 0.96194 0.18024 -0.382683 0.906127 
0.162212 -0.55557 0.815493 0.13795 -0.707107 0.69352 0.108386 -0.83147 0.544895 
0.0746578 -0.92388 0.37533 0.0380602 -0.980785 0.191342 0 0.980785 0.19509 
0 0.92388 0.382683 0 0.83147 0.55557 0 0.707107 0.707107 
0 0.55557 0.83147 0 0.382683 0.92388 0 0.19509 0.980785 
0 0 1 0 -0.19509 0.980785 0 -0.382683 0.92388 
0 -0.55557 0.83147 0 -0.707107 0.707107 0 -0.83147 0.55557 
0 -0.92388 0.382683 0 -0.980785 0.19509 -0.0380602 0.980785 0.191342 
-0.0746578 0.92388 0.37533 -0.108386 0.83147 0.544895 -0.13795 0.707107 0.69352 
-0.162212 0.55557 0.815493 -0.18024 0.382683 0.906127 -0.191342 0.19509 0.96194 
-0.19509 0 0.980785 -0.191342 -0.19509 0.96194 -0.18024 -0.382683 0.906127 
-0.162212 -0.55557 0.815493 -0.13795 -0.707107 0.69352 -0.108386 -0.83147 0.544895 
-0.0746578 -0.92388 0.37533 -0.0380602 -0.980785 0.191342 -0.0746578 0.980785 0.18024 
-0.146447 0.92388 0.353553 -0.212608 0.83147 0.51328 -0.270598 0.707107 0.653282 
-0.31819 0.55557 0.768178 -0.353553 0.382683 0.853553 -0.37533 0.19509 0.906127 
-0.382683 0 0.92388 -0.37533 -0.19509 0.906127 -0.353553 -0.382683 0.853553 
-0.31819 -0.55557 0.768178 -0.270598 -0.707107 0.653282 -0.212608 -0.83147 0.51328 
-0.146447 -0.92388 0.353553 -0.0746578 -0.980785 0.18024 -0.108386 0.980785 0.162212 
-0.212608 0.92388 0.31819 -0.308658 0.83147 0.46194 -0.392847 0.707107 0.587938 
-0.46194 0.55557 0.691342 -0.51328 0.382683 0.768178 -0.544895 0.19509 0.815493 
-0.55557 0 0.83147 -0.544895 -0.19509 0.815493 -0.51328 -0.382683 0.768178 
-0.46194 -0.55557 0.691342 -0.392847 -0.707107 0.587938 -0.308658 -0.83147 0.46194 
-0.212608 -0.92388 0.31819 -0.108386 -0.980785 0.162212 -0.13795 0.980785 0.13795 
-0.270598 0.92388 0.270598 -0.392847 0.83147 0.392847 -0.5 0.707107 0.5 
-0.587938 0.55557 0.587938 -0.653282 0.382683 0.653282 -0.69352 0.19509 0.69352 
-0.707107 0 0.707107 -0.69352 -0.19509 0.69352 -0.653282 -0.382683 0.653282 
-0.587938 -0.55557 0.587938 -0.5 -0.707107 0.5 -0.392847 -0.83147 0.392847 
-0.270598 -0.92388 0.270598 -0.13795 -0.980785 0.13795 -0.162212 0.980785 0.108386 
-0.31819 0.92388 0.212608 -0.46194 0.83147 0.308658 -0.587938 0.707107 0.392847 
-0.691342 0.55557 0.46194 -0.768178 0.382683 0.51328 -0.815493 0.19509 0.544895 
-0.83147 0 0.55557 -0.815493 -0.19509 0.544895 -0.768178 -0.382683 0.51328 
-0.691342 -0.55557 0.46194 -0.587938 -0.707107 0.392847 -0.46194 -0.83147 0.308658 
-0.31819 -0.92388 0.212608 -0.162212 -0.980785 0.108386 -0.18024 0.980785 0.0746578 
-0.353553 0.92388 0.146447 -0.51328 0.83147 0.212608 -0.653282 0.707107 0.270598 
-0.768178 0.55557 0.31819 -0.853553 0.382683 0.353553 -0.906127 0.19509 0.37533 
-0.92388 0 0.382683 -0.906127 -0.19509 0.37533 -0.853553 -0.382683 0.353553 
-0.768178 -0.55557 0.31819 -0.653282 -0.707107 0.270598 -0.51328 -0.83147 0.212608 
-0.353553 -0.92388 0.146447 -0.18024 -0.980785 0.0746578 -0.191342 0.980785 0.0380602 
-0.37533 0.92388 0.0746578 -0.544895 0.83147 0.108386 -0.69352 0.707107 0.13795 
-0.815493 0.55557 0.162212 -0.906127 0.382683 0.18024 -0.96194 0.19509 0.191342 
-0.980785 0 0.19509 -0.96194 -0.19509 0.191342 -0.906127 -0.382683 0.18024 
-0.815493 -0.55557 0.162212 -0.69352 -0.707107 0.13795 -0.544895 -0.83147 0.108386 
-0.37533 -0.92388 0.0746578 -0.191342 -0.980785 0.0380602 -0.19509 0.980785 0 
-0.382683 0.92388 0 -0.55557 0.83147 0 -0.707107 0.707107 0 
-0.83147 0.55557 0 -0.92388 0.382683 0 -0.980785 0.19509 0 
-1 0 0 -0.980785 -0.19509 0 -0.92388 -0.382683 0 
-0.83147 -0.55557 0 -0.707107 -0.707107 0 -0.55557 -0.83147 0 
-0.382683 -0.92388 0 -0.19509 -0.980785 0 -0.191342 0.980785 -0.0380602 
-0.37533 0.92388 -0.0746578 -0.544895 0.83147 -0.108386 -0.69352 0.707107 -0.13795 
-0.815493 0.55557 -0.162212 -0.906127 0.382683 -0.18024 -0.96194 0.19509 -0.191342 
-0.980785 0 -0.19509 -0.96194 -0.19509 -0.191342 -0.906127 -0.382683 -0.18024 
-0.815493 -0.55557 -0.162212 -0.69352 -0.707107 -0.13795 -0.544895 -0.83147 -0.108386 
-0.37533 -0.92388 -0.0746578 -0.191342 -0.980785 -0.0380602 -0.18024 0.980785 -0.0746578 
-0.353553 0.92388 -0.146447 -0.51328 0.83147 -0.212608 -0.653282 0.707107 -0.270598 
-0.768178 0.55557 -0.31819 -0.853553 0.382683 -0.353553 -0.906127 0.19509 -0.37533 
-0.92388 0 -0.382683 -0.906127 -0.19509 -0.37533 -0.853553 -0.382683 -0.353553 
-0.768178 -0.55557 -0.31819 -0.653282 -0.707107 -0.270598 -0.51328 -0.83147 -0.212608 
-0.353553 -0.92388 -0.146447 -0.18024 -0.980785 -0.0746578 -0.162212 0.980785 -0.108386 
-0.31819 0.92388 -0.212608 -0.46194 0.83147 -0.308658 -0.587938 0.707107 -0.392847 
-0.691342 0.55557 -0.46194 -0.768178 0.382683 -0.51328 -0.815493 0.19509 -0.544895 
-0.83147 0 -0.55557 -0.815493 -0.19509 -0.544895 -0.768178 -0.382683 -0.51328 
-0.691342 -0.55557 -0.46194 -0.587938 -0.707107 -0.392847 -0.46194 -0.83147 -0.308658 
-0.31819 -0.92388 -0.212608 -0.162212 -0.980785 -0.108386 -0.13795 0.980785 -0.13795 
-0.270598 0.92388 -0.270598 -0.392847 0.83147 -0.392847 -0.5 0.707107 -0.5 
-0.587938 0.55557 -0.587938 -0.653282 0.382683 -0.653282 -0.69352 0.19509 -0.69352 
-0.707107 0 -0.707107 -0.69352 -0.19509 -0.69352 -0.653282 -0.382683 -0.653282 
-0.587938 -0.55557 -0.587938 -0.5 -0.707107 -0.5 -0.392847 -0.83147 -0.392847 
-0.270598 -0.92388 -0.270598 -0.13795 -0.980785 -0.13795 -0.108386 0.980785 -0.162212 
-0.212608 0.92388 -0.31819 -0.308658 0.83147 -0.46194 -0.392847 0.707107 -0.587938 
-0.46194 0.55557 -0.691342 -0.51328 0.382683 -0.768178 -0.544895 0.19509 -0.815493 
-0.55557 0 -0.83147 -0.544895 -0.19509 -0.815493 -0.51328 -0.382683 -0.768178 
-0.46194 -0.55557 -0.691342 -0.392847 -0.707107 -0.587938 -0.308658 -0.83147 -0.46194 
-0.212608 -0.92388 -0.31819 -0.108386 -0.980785 -0.162212 -0.0746578 0.980785 -0.18024 
-0.146447 0.92388 -0.353553 -0.212608 0.83147 -0.51328 -0.270598 0.707107 -0.653282 
-0.31819 0.55557 -0.768178 -0.353553 0.382683 -0.853553 -0.37533 0.19509 -0.906127 
-0.382683 0 -0.92388 -0.37533 -0.19509 -0.906127 -0.353553 -0.382683 -0.853553 
-0.31819 -0.55557 -0.768178 -0.270598 -0.707107 -0.653282 -0.212608 -0.83147 -0.51328 
-0.146447 -0.92388 -0.353553 -0.0746578 -0.980785 -0.18024 -0.0380602 0.980785 -0.191342 
-0.0746578 0.92388 -0.37533 -0.108386 0.83147 -0.544895 -0.13795 0.707107 -0.69352 
-0.162212 0.55557 -0.815493 -0.18024 0.382683 -0.906127 -0.191342 0.19509 -0.96194 
-0.19509 0 -0.980785 -0.191342 -0.19509 -0.96194 -0.18024 -0.382683 -0.906127 
-0.162212 -0.55557 -0.815493 -0.13795 -0.707107 -0.69352 -0.108386 -0.83147 -0.544895 
-0.0746578 -0.92388 -0.37533 -0.0380602 -0.980785 -0.191342 0 0.980785 -0.19509 
0 0.92388 -0.382683 0 0.83147 -0.55557 0 0.707107 -0.707107 
0 0.55557 -0.83147 0 0.382683 -0.92388 0 0.19509 -0.980785 
0 0 -1 0 -0.19509 -0.980785 0 -0.382683 -0.92388 
0 -0.55557 -0.83147 0 -0.707107 -0.707107 0 -0.83147 -0.55557 
0 -0.92388 -0.382683 0 -0.980785 -0.19509 0.0380602 0.980785 -0.191342 
0.0746578 0.92388 -0.37533 0.108386 0.83147 -0.544895 0.13795 0.707107 -0.69352 
0.162212 0.55557 -0.815493 0.18024 0.382683 -0.906127 0.191342 0.19509 -0.96194 
[...]
CELL_DATA 960
FIELD FieldData 2
v 1 960 double
0.377432 0.739546 0.650571 0.598029 0.710376 0.251353 0.0180573 -0.301318 -0.401133 
-0.387089 -0.300047 -0.122812 -0.0510274 0.0201261 0.033244 0.0201261 0.033244 -0.122812 
-0.0510274 -0.387089 -0.300047 -0.301318 -0.401133 0.251353 0.0180573 0.598029 0.710376 
0.739546 0.650571 0.377432 0.364354 0.637493 0.714152 0.595619 0.69818 0.0114444 
0.245247 -0.32017 -0.450934 -0.3478 -0.479914 -0.164041 -0.0612547 0.0648768 0.127669 
0.0648768 0.127669 -0.164041 -0.0612547 -0.3478 -0.479914 -0.32017 -0.450934 0.0114444 
0.245247 0.595619 0.69818 0.637493 0.714152 0.364354 0.338225 0.687171 0.584384 
0.583334 0.668192 0.00191288 0.237439 -0.525394 -0.404282 -0.463279 -0.601962 -0.0172493 
-0.202681 0.16508 0.289299 0.16508 0.289299 -0.0172493 -0.202681 -0.463279 -0.601962 
-0.525394 -0.404282 0.00191288 0.237439 0.583334 0.668192 0.687171 0.584384 0.338225 
0.299256 0.545414 0.602774 0.622766 0.524886 0.224417 -0.0172513 -0.603445 -0.441925 
-0.67509 -0.626794 -0.293069 -0.0572186 0.295233 0.471968 0.295233 0.471968 -0.293069 
-0.0572186 -0.67509 -0.626794 -0.603445 -0.441925 0.224417 -0.0172513 0.622766 0.524886 
0.545414 0.602774 0.299256 0.248089 0.535322 0.426794 0.49425 0.524678 -0.0119317 
0.199101 -0.436605 -0.62919 -0.685761 -0.76512 -0.0200301 -0.314846 0.592279 0.452732 
0.592279 0.452732 -0.0200301 -0.314846 -0.685761 -0.76512 -0.436605 -0.62919 -0.0119317 
0.199101 0.49425 0.524678 0.535322 0.426794 0.248089 0.186067 0.364773 0.382341 
0.433719 0.349693 0.145503 -0.0420908 -0.41273 -0.563255 -0.716085 -0.624443 -0.302563 
-0.00493573 0.621879 0.430579 0.621879 0.430579 -0.302563 -0.00493573 -0.716085 -0.624443 
-0.41273 -0.563255 0.145503 -0.0420908 0.433719 0.349693 0.364773 0.382341 0.186067 
0.115393 0.270029 0.181787 0.288429 0.211701 0.0853714 -0.0423566 -0.41669 -0.222378 
-0.541071 -0.421541 -0.0488636 -0.241556 0.486819 0.286212 0.486819 0.286212 -0.0488636 
-0.241556 -0.541071 -0.421541 -0.41669 -0.222378 0.0853714 -0.0423566 0.288429 0.211701 
0.270029 0.181787 0.115393 0.0391126 0.105507 0.0663941 0.117021 0.050627 0.0175789 
0.050627 -0.162442 -0.0330481 -0.237225 -0.129394 -0.0572397 -0.107831 0.20135 0.050591 
0.20135 0.050591 -0.0572397 -0.107831 -0.237225 -0.129394 -0.162442 -0.0330481 0.0175789 
0.050627 0.117021 0.050627 0.105507 0.0663941 0.0391126 -0.0391126 -0.0663941 -0.105507 
-0.050627 -0.117021 -0.050627 -0.0175789 0.0330481 0.162442 0.129394 0.237225 0.107831 
0.0572397 -0.050591 -0.20135 -0.050591 -0.20135 0.107831 0.0572397 0.129394 0.237225 
0.0330481 0.162442 -0.050627 -0.0175789 -0.050627 -0.117021 -0.0663941 -0.105507 -0.0391126 
-0.115393 -0.181787 -0.270029 -0.211701 -0.288429 0.0423566 -0.0853714 0.222378 0.41669 
0.421541 0.541071 0.241556 0.0488636 -0.286212 -0.486819 -0.286212 -0.486819 0.241556 
0.0488636 0.421541 0.541071 0.222378 0.41669 0.0423566 -0.0853714 -0.211701 -0.288429 
-0.181787 -0.270029 -0.115393 -0.186067 -0.382341 -0.364773 -0.349693 -0.433719 0.0420908 
-0.145503 0.563255 0.41273 0.624443 0.716085 0.00493573 0.302563 -0.430579 -0.621879 
-0.430579 -0.621879 0.00493573 0.302563 0.624443 0.716085 0.563255 0.41273 0.0420908 
-0.145503 -0.349693 -0.433719 -0.382341 -0.364773 -0.186067 -0.248089 -0.426794 -0.535322 
-0.524678 -0.49425 -0.199101 0.0119317 0.62919 0.436605 0.76512 0.685761 0.314846 
0.0200301 -0.452732 -0.592279 -0.452732 -0.592279 0.314846 0.0200301 0.76512 0.685761 
0.62919 0.436605 -0.199101 0.0119317 -0.524678 -0.49425 -0.426794 -0.535322 -0.248089 
-0.299256 -0.602774 -0.545414 -0.524886 -0.622766 0.0172513 -0.224417 0.441925 0.603445 
0.626794 0.67509 0.0572186 0.293069 -0.471968 -0.295233 -0.471968 -0.295233 0.0572186 
0.293069 0.626794 0.67509 0.441925 0.603445 0.0172513 -0.224417 -0.524886 -0.622766 
-0.602774 -0.545414 -0.299256 -0.338225 -0.584384 -0.687171 -0.668192 -0.583334 -0.237439 
-0.00191288 0.404282 0.525394 0.601962 0.463279 0.202681 0.0172493 -0.289299 -0.16508 
-0.289299 -0.16508 0.202681 0.0172493 0.601962 0.463279 0.404282 0.525394 -0.237439 
-0.00191288 -0.668192 -0.583334 -0.584384 -0.687171 -0.338225 -0.364354 -0.714152 -0.637493 
-0.69818 -0.595619 -0.245247 -0.0114444 0.450934 0.32017 0.479914 0.3478 0.0612547 
0.164041 -0.127669 -0.0648768 -0.127669 -0.0648768 0.0612547 0.164041 0.479914 0.3478 
0.450934 0.32017 -0.245247 -0.0114444 -0.69818 -0.595619 -0.714152 -0.637493 -0.364354 
-0.377432 -0.650571 -0.739546 -0.710376 -0.598029 -0.0180573 -0.251353 0.401133 0.301318 
0.300047 0.387089 0.0510274 0.122812 -0.033244 -0.0201261 -0.033244 -0.0201261 0.0510274 
0.122812 0.300047 0.387089 0.401133 0.301318 -0.0180573 -0.251353 -0.710376 -0.598029 
-0.650571 -0.739546 -0.377432 -0.377432 -0.739546 -0.650571 -0.598029 -0.710376 -0.251353 
-0.0180573 0.301318 0.401133 0.387089 0.300047 0.122812 0.0510274 -0.0201261 -0.033244 
-0.0201261 -0.033244 0.122812 0.0510274 0.387089 0.300047 0.301318 0.401133 -0.251353 
-0.0180573 -0.598029 -0.710376 -0.739546 -0.650571 -0.377432 -0.364354 -0.637493 -0.714152 
-0.595619 -0.69818 -0.0114444 -0.245247 0.32017 0.450934 0.3478 0.479914 0.164041 
0.0612547 -0.0648768 -0.127669 -0.0648768 -0.127669 0.164041 0.0612547 0.3478 0.479914 
0.32017 0.450934 -0.0114444 -0.245247 -0.595619 -0.69818 -0.637493 -0.714152 -0.364354 
-0.338225 -0.687171 -0.584384 -0.583334 -0.668192 -0.00191288 -0.237439 0.525394 0.404282 
0.463279 0.601962 0.0172493 0.202681 -0.16508 -0.289299 -0.16508 -0.289299 0.0172493 
0.202681 0.463279 0.601962 0.525394 0.404282 -0.00191288 -0.237439 -0.583334 -0.668192 
-0.687171 -0.584384 -0.338225 -0.299256 -0.545414 -0.602774 -0.622766 -0.524886 -0.224417 
0.0172513 0.603445 0.441925 0.67509 0.626794 0.293069 0.0572186 -0.295233 -0.471968 
-0.295233 -0.471968 0.293069 0.0572186 0.67509 0.626794 0.603445 0.441925 -0.224417 
0.0172513 -0.622766 -0.524886 -0.545414 -0.602774 -0.299256 -0.248089 -0.535322 -0.426794 
-0.49425 -0.524678 0.0119317 -0.199101 0.436605 0.62919 0.685761 0.76512 0.0200301 
0.314846 -0.592279 -0.452732 -0.592279 -0.452732 0.0200301 0.314846 0.685761 0.76512 
0.436605 0.62919 0.0119317 -0.199101 -0.49425 -0.524678 -0.535322 -0.426794 -0.248089 
-0.186067 -0.364773 -0.382341 -0.433719 -0.349693 -0.145503 0.0420908 0.41273 0.563255 
0.716085 0.624443 0.302563 0.00493573 -0.621879 -0.430579 -0.621879 -0.430579 0.302563 
0.00493573 0.716085 0.624443 0.41273 0.563255 -0.145503 0.0420908 -0.433719 -0.349693 
-0.364773 -0.382341 -0.186067 -0.115393 -0.270029 -0.181787 -0.288429 -0.211701 -0.0853714 
0.0423566 0.41669 0.222378 0.541071 0.421541 0.0488636 0.241556 -0.486819 -0.286212 
-0.486819 -0.286212 0.0488636 0.241556 0.541071 0.421541 0.41669 0.222378 -0.0853714 
0.0423566 -0.288429 -0.211701 -0.270029 -0.181787 -0.115393 -0.0391126 -0.105507 -0.0663941 
-0.117021 -0.050627 -0.0175789 -0.050627 0.162442 0.0330481 0.237225 0.129394 0.0572397 
0.107831 -0.20135 -0.050591 -0.20135 -0.050591 0.0572397 0.107831 0.237225 0.129394 
0.162442 0.0330481 -0.0175789 -0.050627 -0.117021 -0.050627 -0.105507 -0.0663941 -0.0391126 
0.0391126 0.0663941 0.105507 0.050627 0.117021 0.050627 0.0175789 -0.0330481 -0.162442 
-0.129394 -0.237225 -0.107831 -0.0572397 0.050591 0.20135 0.050591 0.20135 -0.107831 
-0.0572397 -0.129394 -0.237225 -0.0330481 -0.162442 0.050627 0.0175789 0.050627 0.117021 
0.0663941 0.105507 0.0391126 0.115393 0.181787 0.270029 0.211701 0.288429 -0.0423566 
0.0853714 -0.222378 -0.41669 -0.421541 -0.541071 -0.241556 -0.0488636 0.286212 0.486819 
0.286212 0.486819 -0.241556 -0.0488636 -0.421541 -0.541071 -0.222378 -0.41669 -0.0423566 
0.0853714 0.211701 0.288429 0.181787 0.270029 0.115393 0.186067 0.382341 0.364773 
0.349693 0.433719 -0.0420908 0.145503 -0.563255 -0.41273 -0.624443 -0.716085 -0.00493573 
-0.302563 0.430579 0.621879 0.430579 0.621879 -0.00493573 -0.302563 -0.624443 -0.716085 
-0.563255 -0.41273 -0.0420908 0.145503 0.349693 0.433719 0.382341 0.364773 0.186067 
0.248089 0.426794 0.535322 0.524678 0.49425 0.199101 -0.0119317 -0.62919 -0.436605 
-0.76512 -0.685761 -0.314846 -0.0200301 0.452732 0.592279 0.452732 0.592279 -0.314846 
-0.0200301 -0.76512 -0.685761 -0.62919 -0.436605 0.199101 -0.0119317 0.524678 0.49425 
0.426794 0.535322 0.248089 0.299256 0.602774 0.545414 0.524886 0.622766 -0.0172513 
0.224417 -0.441925 -0.603445 -0.626794 -0.67509 -0.0572186 -0.293069 0.471968 0.295233 
0.471968 0.295233 -0.0572186 -0.293069 -0.626794 -0.67509 -0.441925 -0.603445 -0.0172513 
0.224417 0.524886 0.622766 0.602774 0.545414 0.299256 0.338225 0.584384 0.687171 
0.668192 0.583334 0.237439 0.00191288 -0.404282 -0.525394 -0.601962 -0.463279 -0.202681 
-0.0172493 0.289299 0.16508 0.289299 0.16508 -0.202681 -0.0172493 -0.601962 -0.463279 
-0.404282 -0.525394 0.237439 0.00191288 0.668192 0.583334 0.584384 0.687171 0.338225 
0.364354 0.714152 0.637493 0.69818 0.595619 0.245247 0.0114444 -0.450934 -0.32017 
-0.479914 -0.3478 -0.0612547 -0.164041 0.127669 0.0648768 0.127669 0.0648768 -0.0612547 
-0.164041 -0.479914 -0.3478 -0.450934 -0.32017 0.245247 0.0114444 0.69818 0.595619 
0.714152 0.637493 0.364354 0.377432 0.650571 0.739546 0.710376 0.598029 0.0180573 
0.251353 -0.401133 -0.301318 -0.300047 -0.387089 -0.0510274 -0.122812 0.033244 0.0201261 
0.033244 0.0201261 -0.0510274 -0.122812 -0.300047 -0.387089 -0.401133 -0.301318 0.0180573 
0.251353 0.710376 0.598029 0.650571 0.739546 0.377432 
E_normal_jump 1 960 double
3.38862 7.74106 5.54897 6.30529 8.19415 3.66804 -0.416439 -3.1955 -4.50778 
-3.71012 -1.51254 0.323016 1.13107 1.05664 0.530051 1.05664 0.530051 0.323016 
1.13107 -3.71012 -1.51254 -3.1955 -4.50778 3.66804 -0.416439 6.30529 8.19415 
7.74106 5.54897 3.38862 3.30255 4.96367 7.36433 6.37542 8.08818 -0.22663 
4.45305 -2.74139 -4.54704 -2.26814 -5.14852 -0.908948 0.333044 1.56769 1.8578 
1.56769 1.8578 -0.908948 0.333044 -2.26814 -5.14852 -2.74139 -4.54704 -0.22663 
4.45305 6.37542 8.08818 4.96367 7.36433 3.30255 3.11835 7.52915 5.43734 
6.62261 8.12248 -0.325407 4.07057 -5.90938 -3.47257 -3.98105 -6.45999 1.96885 
-0.815721 2.35798 4.17896 2.35798 4.17896 1.96885 -0.815721 -3.98105 -6.45999 
-5.90938 -3.47257 -0.325407 4.07057 6.62261 8.12248 7.52915 5.43734 3.11835 
2.82053 3.98902 6.45105 6.62688 6.0889 4.10962 0.27773 -7.10205 -4.02568 
-7.31447 -6.70987 -3.63143 -0.0924055 4.02657 6.33493 4.02657 6.33493 -3.63143 
-0.0924055 -7.31447 -6.70987 -7.10205 -4.02568 4.10962 0.27773 6.62688 6.0889 
3.98902 6.45105 2.82053 2.39164 6.22042 4.19025 6.78027 7.11581 1.06792 
4.76095 -3.37125 -7.35666 -8.19113 -9.19675 0.859796 -4.05709 8.52348 6.0087 
8.52348 6.0087 0.859796 -4.05709 -8.19113 -9.19675 -3.37125 -7.35666 1.06792 
4.76095 6.78027 7.11581 6.22042 4.19025 2.39164 1.83082 2.60462 4.33911 
4.54379 4.80369 2.80151 0.194401 -2.91285 -6.7196 -8.22516 -7.83992 -4.12363 
0.999327 9.11916 5.46044 9.11916 5.46044 -4.12363 0.999327 -8.22516 -7.83992 
-2.91285 -6.7196 2.80151 0.194401 4.54379 4.80369 2.60462 4.33911 1.83082 
1.15286 3.33269 1.90925 3.19759 3.11367 2.22254 -0.596902 -4.23367 -0.998533 
-6.50456 -4.98395 -0.810148 -4.20378 7.2333 3.92583 7.2333 3.92583 -0.810148 
-4.20378 -6.50456 -4.98395 -4.23367 -0.998533 2.22254 -0.596902 3.19759 3.11367 
3.33269 1.90925 1.15286 0.393449 0.596559 0.763324 0.975335 0.348727 1.39432 
2.40096 -1.64041 0.776925 -3.05612 -1.9342 -0.632084 -2.7328 2.98498 0.108925 
2.98498 0.108925 -0.632084 -2.7328 -3.05612 -1.9342 -1.64041 0.776925 1.39432 
2.40096 0.975335 0.348727 0.596559 0.763324 0.393449 -0.393449 -0.763324 -0.596559 
-0.348727 -0.975335 -2.40096 -1.39432 -0.776925 1.64041 1.9342 3.05612 2.7328 
0.632084 -0.108925 -2.98498 -0.108925 -2.98498 2.7328 0.632084 1.9342 3.05612 
-0.776925 1.64041 -2.40096 -1.39432 -0.348727 -0.975335 -0.763324 -0.596559 -0.393449 
-1.15286 -1.90925 -3.33269 -3.11367 -3.19759 0.596902 -2.22254 0.998533 4.23367 
4.98395 6.50456 4.20378 0.810148 -3.92583 -7.2333 -3.92583 -7.2333 4.20378 
0.810148 4.98395 6.50456 0.998533 4.23367 0.596902 -2.22254 -3.11367 -3.19759 
-1.90925 -3.33269 -1.15286 -1.83082 -4.33911 -2.60462 -4.80369 -4.54379 -0.194401 
-2.80151 6.7196 2.91285 7.83992 8.22516 -0.999327 4.12363 -5.46044 -9.11916 
-5.46044 -9.11916 -0.999327 4.12363 7.83992 8.22516 6.7196 2.91285 -0.194401 
-2.80151 -4.80369 -4.54379 -4.33911 -2.60462 -1.83082 -2.39164 -4.19025 -6.22042 
-7.11581 -6.78027 -4.76095 -1.06792 7.35666 3.37125 9.19675 8.19113 4.05709 
-0.859796 -6.0087 -8.52348 -6.0087 -8.52348 4.05709 -0.859796 9.19675 8.19113 
7.35666 3.37125 -4.76095 -1.06792 -7.11581 -6.78027 -4.19025 -6.22042 -2.39164 
-2.82053 -6.45105 -3.98902 -6.0889 -6.62688 -0.27773 -4.10962 4.02568 7.10205 
6.70987 7.31447 0.0924055 3.63143 -6.33493 -4.02657 -6.33493 -4.02657 0.0924055 
3.63143 6.70987 7.31447 4.02568 7.10205 -0.27773 -4.10962 -6.0889 -6.62688 
-6.45105 -3.98902 -2.82053 -3.11835 -5.43734 -7.52915 -8.12248 -6.62261 -4.07057 
0.325407 3.47257 5.90938 6.45999 3.98105 0.815721 -1.96885 -4.17896 -2.35798 
-4.17896 -2.35798 0.815721 -1.96885 6.45999 3.98105 3.47257 5.90938 -4.07057 
0.325407 -8.12248 -6.62261 -5.43734 -7.52915 -3.11835 -3.30255 -7.36433 -4.96367 
-8.08818 -6.37542 -4.45305 0.22663 4.54704 2.74139 5.14852 2.26814 -0.333044 
0.908948 -1.8578 -1.56769 -1.8578 -1.56769 -0.333044 0.908948 5.14852 2.26814 
4.54704 2.74139 -4.45305 0.22663 -8.08818 -6.37542 -7.36433 -4.96367 -3.30255 
-3.38862 -5.54897 -7.74106 -8.19415 -6.30529 0.416439 -3.66804 4.50778 3.1955 
1.51254 3.71012 -1.13107 -0.323016 -0.530051 -1.05664 -0.530051 -1.05664 -1.13107 
-0.323016 1.51254 3.71012 4.50778 3.1955 0.416439 -3.66804 -8.19415 -6.30529 
-5.54897 -7.74106 -3.38862 -3.38862 -7.74106 -5.54897 -6.30529 -8.19415 -3.66804 
0.416439 3.1955 4.50778 3.71012 1.51254 -0.323016 -1.13107 -1.05664 -0.530051 
-1.05664 -0.530051 -0.323016 -1.13107 3.71012 1.51254 3.1955 4.50778 -3.66804 
0.416439 -6.30529 -8.19415 -7.74106 -5.54897 -3.38862 -3.30255 -4.96367 -7.36433 
-6.37542 -8.08818 0.22663 -4.45305 2.74139 4.54704 2.26814 5.14852 0.908948 
-0.333044 -1.56769 -1.8578 -1.56769 -1.8578 0.908948 -0.333044 2.26814 5.14852 
2.74139 4.54704 0.22663 -4.45305 -6.37542 -8.08818 -4.96367 -7.36433 -3.30255 
-3.11835 -7.52915 -5.43734 -6.62261 -8.12248 0.325407 -4.07057 5.90938 3.47257 
3.98105 6.45999 -1.96885 0.815721 -2.35798 -4.17896 -2.35798 -4.17896 -1.96885 
0.815721 3.98105 6.45999 5.90938 3.47257 0.325407 -4.07057 -6.62261 -8.12248 
-7.52915 -5.43734 -3.11835 -2.82053 -3.98902 -6.45105 -6.62688 -6.0889 -4.10962 
-0.27773 7.10205 4.02568 7.31447 6.70987 3.63143 0.0924055 -4.02657 -6.33493 
-4.02657 -6.33493 3.63143 0.0924055 7.31447 6.70987 7.10205 4.02568 -4.10962 
-0.27773 -6.62688 -6.0889 -3.98902 -6.45105 -2.82053 -2.39164 -6.22042 -4.19025 
-6.78027 -7.11581 -1.06792 -4.76095 3.37125 7.35666 8.19113 9.19675 -0.859796 
4.05709 -8.52348 -6.0087 -8.52348 -6.0087 -0.859796 4.05709 8.19113 9.19675 
3.37125 7.35666 -1.06792 -4.76095 -6.78027 -7.11581 -6.22042 -4.19025 -2.39164 
-1.83082 -2.60462 -4.33911 -4.54379 -4.80369 -2.80151 -0.194401 2.91285 6.7196 
8.22516 7.83992 4.12363 -0.999327 -9.11916 -5.46044 -9.11916 -5.46044 4.12363 
-0.999327 8.22516 7.83992 2.91285 6.7196 -2.80151 -0.194401 -4.54379 -4.80369 
-2.60462 -4.33911 -1.83082 -1.15286 -3.33269 -1.90925 -3.19759 -3.11367 -2.22254 
0.596902 4.23367 0.998533 6.50456 4.98395 0.810148 4.20378 -7.2333 -3.92583 
-7.2333 -3.92583 0.810148 4.20378 6.50456 4.98395 4.23367 0.998533 -2.22254 
0.596902 -3.19759 -3.11367 -3.33269 -1.90925 -1.15286 -0.393449 -0.596559 -0.763324 
-0.975335 -0.348727 -1.39432 -2.40096 1.64041 -0.776925 3.05612 1.9342 0.632084 
2.7328 -2.98498 -0.108925 -2.98498 -0.108925 0.632084 2.7328 3.05612 1.9342 
1.64041 -0.776925 -1.39432 -2.40096 -0.975335 -0.348727 -0.596559 -0.763324 -0.393449 
0.393449 0.763324 0.596559 0.348727 0.975335 2.40096 1.39432 0.776925 -1.64041 
-1.9342 -3.05612 -2.7328 -0.632084 0.108925 2.98498 0.108925 2.98498 -2.7328 
-0.632084 -1.9342 -3.05612 0.776925 -1.64041 2.40096 1.39432 0.348727 0.975335 
0.763324 0.596559 0.393449 1.15286 1.90925 3.33269 3.11367 3.19759 -0.596902 
2.22254 -0.998533 -4.23367 -4.98395 -6.50456 -4.20378 -0.810148 3.92583 7.2333 
3.92583 7.2333 -4.20378 -0.810148 -4.98395 -6.50456 -0.998533 -4.23367 -0.596902 
2.22254 3.11367 3.19759 1.90925 3.33269 1.15286 1.83082 4.33911 2.60462 
4.80369 4.54379 0.194401 2.80151 -6.7196 -2.91285 -7.83992 -8.22516 0.999327 
-4.12363 5.46044 9.11916 5.46044 9.11916 0.999327 -4.12363 -7.83992 -8.22516 
-6.7196 -2.91285 0.194401 2.80151 4.80369 4.54379 4.33911 2.60462 1.83082 
2.39164 4.19025 6.22042 7.11581 6.78027 4.76095 1.06792 -7.35666 -3.37125 
-9.19675 -8.19113 -4.05709 0.859796 6.0087 8.52348 6.0087 8.52348 -4.05709 
0.859796 -9.19675 -8.19113 -7.35666 -3.37125 4.76095 1.06792 7.11581 6.78027 
4.19025 6.22042 2.39164 2.82053 6.45105 3.98902 6.0889 6.62688 0.27773 
4.10962 -4.02568 -7.10205 -6.70987 -7.31447 -0.0924055 -3.63143 6.33493 4.02657 
6.33493 4.02657 -0.0924055 -3.63143 -6.70987 -7.31447 -4.02568 -7.10205 0.27773 
4.10962 6.0889 6.62688 6.45105 3.98902 2.82053 3.11835 5.43734 7.52915 
8.12248 6.62261 4.07057 -0.325407 -3.47257 -5.90938 -6.45999 -3.98105 -0.815721 
1.96885 4.17896 2.35798 4.17896 2.35798 -0.815721 1.96885 -6.45999 -3.98105 
-3.47257 -5.90938 4.07057 -0.325407 8.12248 6.62261 5.43734 7.52915 3.11835 
3.30255 7.36433 4.96367 8.08818 6.37542 4.45305 -0.22663 -4.54704 -2.74139 
-5.14852 -2.26814 0.333044 -0.908948 1.8578 1.56769 1.8578 1.56769 0.333044 
-0.908948 -5.14852 -2.26814 -4.54704 -2.74139 4.45305 -0.22663 8.08818 6.37542 
7.36433 4.96367 3.30255 3.38862 5.54897 7.74106 8.19415 6.30529 -0.416439 
3.66804 -4.50778 -3.1955 -1.51254 -3.71012 1.13107 0.323016 0.530051 1.05664 
0.530051 1.05664 1.13107 0.323016 -1.51254 -3.71012 -4.50778 -3.1955 -0.416439 
3.66804 8.19415 6.30529 5.54897 7.74106 3.38862 
POINT_DATA 482
NORMALS Normals float
4.67936e-10 1 -1.81325e-09 0.191325 0.980789 0.0380568 0.227152 0.973859 3.11865e-10 
0.361208 0.929163 0.0786406 0.412766 0.910837 -6.24083e-10 0.557569 0.823577 0.104109 
0.555535 0.831493 9.37245e-10 0.709914 0.692995 0.125621 0.683494 0.729956 -3.74977e-09 
0.820874 0.54382 0.174429 0.81277 0.582585 0 0.916862 0.364378 0.163075 
0.910813 0.412819 -2.50414e-09 0.962058 0.195108 0.190728 0.973852 0.227183 0 
0.973856 -1.25308e-09 0.227168 1 0 -9.40313e-10 0.962058 -0.195108 0.190728 
0.973852 -0.227183 -1.25278e-09 0.916862 -0.364378 0.163075 0.910813 -0.412819 -2.50414e-09 
0.820874 -0.54382 0.174429 0.81277 -0.582585 0 0.709914 -0.692995 0.125621 
0.683494 -0.729956 -1.87488e-09 0.557569 -0.823577 0.104109 0.555535 -0.831493 9.37245e-10 
0.361208 -0.929163 0.0786406 0.412766 -0.910837 3.12042e-10 0.191325 -0.980789 0.0380568 
0.227152 -0.973859 3.11865e-10 4.67936e-10 -1 -1.81325e-09 0.209861 0.973859 0.0869274 
0.366683 0.916136 0.16198 0.512219 0.831491 0.21507 0.665785 0.697093 0.266065 
0.771323 0.53904 0.338374 0.863138 0.369649 0.344024 0.916857 0.175719 0.358464 
0.910825 0 0.412792 0.916857 -0.175719 0.358464 0.863138 -0.369649 0.344024 
0.771323 -0.53904 0.338374 0.665785 -0.697093 0.266065 0.512219 -0.831491 0.21507 
0.366683 -0.916136 0.16198 0.209861 -0.973859 0.0869274 0.162197 0.980789 0.108377 
0.29279 0.935949 0.195636 0.438979 0.849272 0.293317 0.573479 0.716974 0.396321 
0.690511 0.571805 0.442983 0.757313 0.412819 0.506021 0.820861 0.208866 0.531566 
0.812792 0 0.582554 0.820861 -0.208866 0.531566 0.757313 -0.412819 0.506021 
0.690511 -0.571805 0.442983 0.573479 -0.716974 0.396321 0.438979 -0.849272 0.293317 
0.292789 -0.935949 0.195636 0.162197 -0.980789 0.108377 0.160621 0.973859 0.160621 
0.29187 0.910837 0.291869 0.411906 0.812814 0.411906 0.499977 0.70714 0.499977 
0.587921 0.555606 0.587921 0.661802 0.35219 0.661802 0.697671 0.162818 0.697671 
0.707107 0 0.707107 0.697671 -0.162818 0.697671 0.661802 -0.35219 0.661802 
0.587921 -0.555606 0.587921 0.499977 -0.70714 0.499977 0.411906 -0.812814 0.411906 
0.291869 -0.910837 0.291869 0.160621 -0.973859 0.160621 0.108377 0.980789 0.162197 