# vtk DataFile Version 4.0
vtk output
ASCII
DATASET POLYDATA
POINTS 482 float
0 1 0 0.191342 0.980785 0.0380602 0.19509 0.980785 0 
0.37533 0.92388 0.0746578 0.382683 0.92388 0 0.544895 0.83147 0.108386 
0.55557 0.83147 0 0.69352 0.707107 0.13795 0.707107 0.707107 0 
0.815493 0.55557 0.162212 0.83147 0.55557 0 0.906127 0.382683 0.18024 
0.92388 0.382683 0 0.96194 0.19509 0.191342 0.980785 0.19509 0 
0.980785 0 0.19509 1 0 0 0.96194 -0.19509 0.191342 
0.980785 -0.19509 0 0.906127 -0.382683 0.18024 0.92388 -0.382683 0 
0.815493 -0.55557 0.162212 0.83147 -0.55557 0 0.69352 -0.707107 0.13795 
0.707107 -0.707107 0 0.544895 -0.83147 0.108386 0.55557 -0.83147 0 
0.37533 -0.92388 0.0746578 0.382683 -0.92388 0 0.191342 -0.980785 0.0380602 
0.19509 -0.980785 0 0 -1 0 0.18024 0.980785 0.0746578 
0.353553 0.92388 0.146447 0.51328 0.83147 0.212608 0.653282 0.707107 0.270598 
0.768178 0.55557 0.31819 0.853553 0.382683 0.353553 0.906127 0.19509 0.37533 
0.92388 0 0.382683 0.906127 -0.19509 0.37533 0.853553 -0.382683 0.353553 
0.768178 -0.55557 0.31819 0.653282 -0.707107 0.270598 0.51328 -0.83147 0.212608 
0.353553 -0.92388 0.146447 0.18024 -0.980785 0.0746578 0.162212 0.980785 0.108386 
0.31819 0.92388 0.212608 0.46194 0.83147 0.308658 0.587938 0.707107 0.392847 
0.691342 0.55557 0.46194 0.768178 0.382683 0.51328 0.815493 0.19509 0.544895 
0.83147 0 0.55557 0.815493 -0.19509 0.544895 0.768178 -0.382683 0.51328 
0.691342 -0.55557 0.46194 0.587938 -0.707107 0.392847 0.46194 -0.83147 0.308658 
0.31819 -0.92388 0.212608 0.162212 -0.980785 0.108386 0.13795 0.980785 0.13795 
0.270598 0.92388 0.270598 0.392847 0.83147 0.392847 0.5 0.707107 0.5 
0.587938 0.55557 0.587938 0.653282 0.382683 0.653282 0.69352 0.19509 0.69352 
0.707107 0 0.707107 0.69352 -0.19509 0.69352 0.653282 -0.382683 0.653282 
0.587938 -0.55557 0.587938 0.5 -0.707107 0.5 0.392847 -0.83147 0.392847 
0.270598 -0.92388 0.270598 0.13795 -0.980785 0.13795 0.108386 0.980785 0.162212 
0.212608 0.92388 0.31819 0.308658 0.83147 0.46194 0.392847 0.707107 0.587938 
0.46194 0.55557 0.691342 0.51328 0.382683 0.768178 0.544895 0.19509 0.815493 
0.55557 0 0.83147 0.544895 -0.19509 0.815493 0.51328 -0.382683 0.768178 
0.46194 -0.55557 0.691342 0.392847 -0.707107 0.587938 0.308658 -0.83147 0.46194 
0.212608 -0.92388 0.31819 0.108386 -0.980785 0.162212 0.0746578 0.980785 0.18024 
0.146447 0.92388 0.353553 0.212608 0.83147 0.51328 0.270598 0.707107 0.653282 
0.31819 0.55557 0.768178 0.353553 0.382683 0.853553 0.37533 0.19509 0.906127 
0.382683 0 0.92388 0.37533 -0.19509 0.906127 0.353553 -0.382683 0.853553 
0.31819 -0.55557 0.768178 0.270598 -0.707107 0.653282 0.212608 -0.83147 0.51328 
0.146447 -0.92388 0.353553 0.0746578 -0.980785 0.18024 0.0380602 0.980785 0.191342 
0.0746578 0.92388 0.37533 0.108386 0.83147 0.544895 0.13795 0.707107 0.69352 
0.162212 0.55557 0.815493 0.18024 0.382683 0.906127 0.191342 0.19509 0.96194 
0.19509 0 0.980785 0.191342 -0.19509 0.96194 0.18024 -0.382683 0.906127 
0.162212 -0.55557 0.815493 0.13795 -0.707107 0.69352 0.108386 -0.83147 0.544895 
0.0746578 -0.92388 0.37533 0.0380602 -0.980785 0.191342 0 0.980785 0.19509 
0 0.92388 0.382683 0 0.83147 0.55557 0 0.707107 0.707107 
0 0.55557 0.83147 0 0.382683 0.92388 0 0.19509 0.980785 
0 0 1 0 -0.19509 0.980785 0 -0.382683 0.92388 
0 -0.55557 0.83147 0 -0.707107 0.707107 0 -0.83147 0.55557 
0 -0.92388 0.382683 0 -0.980785 0.19509 -0.0380602 0.980785 0.191342 
-0.0746578 0.92388 0.37533 -0.108386 0.83147 0.544895 -0.13795 0.707107 0.69352 
-0.162212 0.55557 0.815493 -0.18024 0.382683 0.906127 -0.191342 0.19509 0.96194 
-0.19509 0 0.980785 -0.191342 -0.19509 0.96194 -0.18024 -0.382683 0.906127 
-0.162212 -0.55557 0.815493 -0.13795 -0.707107 0.69352 -0.108386 -0.83147 0.544895 
-0.0746578 -0.92388 0.37533 -0.0380602 -0.980785 0.191342 -0.0746578 0.980785 0.18024 
-0.146447 0.92388 0.353553 -0.212608 0.83147 0.51328 -0.270598 0.707107 0.653282 
-0.31819 0.55557 0.768178 -0.353553 0.382683 0.853553 -0.37533 0.19509 0.906127 
-0.382683 0 0.92388 -0.37533 -0.19509 0.906127 -0.353553 -0.382683 0.853553 
-0.31819 -0.55557 0.768178 -0.270598 -0.707107 0.653282 -0.212608 -0.83147 0.51328 
-0.146447 -0.92388 0.353553 -0.0746578 -0.980785 0.18024 -0.108386 0.980785 0.162212 
-0.212608 0.92388 0.31819 -0.308658 0.83147 0.46194 -0.392847 0.707107 0.587938 
-0.46194 0.55557 0.691342 -0.51328 0.382683 0.768178 -0.544895 0.19509 0.815493 
-0.55557 0 0.83147 -0.544895 -0.19509 0.815493 -0.51328 -0.382683 0.768178 
-0.46194 -0.55557 0.691342 -0.392847 -0.707107 0.587938 -0.308658 -0.83147 0.46194 
-0.212608 -0.92388 0.31819 -0.108386 -0.980785 0.162212 -0.13795 0.980785 0.13795 
-0.270598 0.92388 0.270598 -0.392847 0.83147 0.392847 -0.5 0.707107 0.5 
-0.587938 0.55557 0.587938 -0.653282 0.382683 0.653282 -0.69352 0.19509 0.69352 
-0.707107 0 0.707107 -0.69352 -0.19509 0.69352 -0.653282 -0.382683 0.653282 
-0.587938 -0.55557 0.587938 -0.5 -0.707107 0.5 -0.392847 -0.83147 0.392847 
-0.270598 -0.92388 0.270598 -0.13795 -0.980785 0.13795 -0.162212 0.980785 0.108386 
-0.31819 0.92388 0.212608 -0.46194 0.83147 0.308658 -0.587938 0.707107 0.392847 
-0.691342 0.55557 0.46194 -0.768178 0.382683 0.51328 -0.815493 0.19509 0.544895 
-0.83147 0 0.55557 -0.815493 -0.19509 0.544895 -0.768178 -0.382683 0.51328 
-0.691342 -0.55557 0.46194 -0.587938 -0.707107 0.392847 -0.46194 -0.83147 0.308658 
-0.31819 -0.92388 0.212608 -0.162212 -0.980785 0.108386 -0.18024 0.980785 0.0746578 
-0.353553 0.92388 0.146447 -0.51328 0.83147 0.212608 -0.653282 0.707107 0.270598 
-0.768178 0.55557 0.31819 -0.853553 0.382683 0.353553 -0.906127 0.19509 0.37533 
-0.92388 0 0.382683 -0.906127 -0.19509 0.37533 -0.853553 -0.382683 0.353553 
-0.768178 -0.55557 0.31819 -0.653282 -0.707107 0.270598 -0.51328 -0.83147 0.212608 
-0.353553 -0.92388 0.146447 -0.18024 -0.980785 0.0746578 -0.191342 0.980785 0.0380602 
-0.37533 0.92388 0.0746578 -0.544895 0.83147 0.108386 -0.69352 0.707107 0.13795 
-0.815493 0.55557 0.162212 -0.906127 0.382683 0.18024 -0.96194 0.19509 0.191342 
-0.980785 0 0.19509 -0.96194 -0.19509 0.191342 -0.906127 -0.382683 0.18024 
-0.815493 -0.55557 0.162212 -0.69352 -0.707107 0.13795 -0.544895 -0.83147 0.108386 
-0.37533 -0.92388 0.0746578 -0.191342 -0.980785 0.0380602 -0.19509 0.980785 0 
-0.382683 0.92388 0 -0.55557 0.83147 0 -0.707107 0.707107 0 
-0.83147 0.55557 0 -0.92388 0.382683 0 -0.980785 0.19509 0 
-1 0 0 -0.980785 -0.19509 0 -0.92388 -0.382683 0 
-0.83147 -0.55557 0 -0.707107 -0.707107 0 -0.55557 -0.83147 0 
-0.382683 -0.92388 0 -0.19509 -0.980785 0 -0.191342 0.980785 -0.0380602 
-0.37533 0.92388 -0.0746578 -0.544895 0.83147 -0.108386 -0.69352 0.707107 -0.13795 
-0.815493 0.55557 -0.162212 -0.906127 0.382683 -0.18024 -0.96194 0.19509 -0.191342 
-0.980785 0 -0.19509 -0.96194 -0.19509 -0.191342 -0.906127 -0.382683 -0.18024 
-0.815493 -0.55557 -0.162212 -0.69352 -0.707107 -0.13795 -0.544895 -0.83147 -0.108386 
-0.37533 -0.92388 -0.0746578 -0.191342 -0.980785 -0.0380602 -0.18024 0.980785 -0.0746578 
-0.353553 0.92388 -0.146447 -0.51328 0.83147 -0.212608 -0.653282 0.707107 -0.270598 
-0.768178 0.55557 -0.31819 -0.853553 0.382683 -0.353553 -0.906127 0.19509 -0.37533 
-0.92388 0 -0.382683 -0.906127 -0.19509 -0.37533 -0.853553 -0.382683 -0.353553 
-0.768178 -0.55557 -0.31819 -0.653282 -0.707107 -0.270598 -0.51328 -0.83147 -0.212608 
-0.353553 -0.92388 -0.146447 -0.18024 -0.980785 -0.0746578 -0.162212 0.980785 -0.108386 
-0.31819 0.92388 -0.212608 -0.46194 0.83147 -0.308658 -0.587938 0.707107 -0.392847 
-0.691342 0.55557 -0.46194 -0.768178 0.382683 -0.51328 -0.815493 0.19509 -0.544895 
-0.83147 0 -0.55557 -0.815493 -0.19509 -0.544895 -0.768178 -0.382683 -0.51328 
-0.691342 -0.55557 -0.46194 -0.587938 -0.707107 -0.392847 -0.46194 -0.83147 -0.308658 
-0.31819 -0.92388 -0.212608 -0.162212 -0.980785 -0.108386 -0.13795 0.980785 -0.13795 
-0.270598 0.92388 -0.270598 -0.392847 0.83147 -0.392847 -0.5 0.707107 -0.5 
-0.587938 0.55557 -0.587938 -0.653282 0.382683 -0.653282 -0.69352 0.19509 -0.69352 
-0.707107 0 -0.707107 -0.69352 -0.19509 -0.69352 -0.653282 -0.382683 -0.653282 
-0.587938 -0.55557 -0.587938 -0.5 -0.707107 -0.5 -0.392847 -0.83147 -0.392847 
-0.270598 -0.92388 -0.270598 -0.13795 -0.980785 -0.13795 -0.108386 0.980785 -0.162212 
-0.212608 0.92388 -0.31819 -0.308658 0.83147 -0.46194 -0.392847 0.707107 -0.587938 
-0.46194 0.55557 -0.691342 -0.51328 0.382683 -0.768178 -0.544895 0.19509 -0.815493 
-0.55557 0 -0.83147 -0.544895 -0.19509 -0.815493 -0.51328 -0.382683 -0.768178 
-0.46194 -0.55557 -0.691342 -0.392847 -0.707107 -0.587938 -0.308658 -0.83147 -0.46194 
-0.212608 -0.92388 -0.31819 -0.108386 -0.980785 -0.162212 -0.0746578 0.980785 -0.18024 
-0.146447 0.92388 -0.353553 -0.212608 0.83147 -0.51328 -0.270598 0.707107 -0.653282 
-0.31819 0.55557 -0.768178 -0.353553 0.382683 -0.853553 -0.37533 0.19509 -0.906127 
-0.382683 0 -0.92388 -0.37533 -0.19509 -0.906127 -0.353553 -0.382683 -0.853553 
-0.31819 -0.55557 -0.768178 -0.270598 -0.707107 -0.653282 -0.212608 -0.83147 -0.51328 
-0.146447 -0.92388 -0.353553 -0.0746578 -0.980785 -0.18024 -0.0380602 0.980785 -0.191342 
-0.0746578 0.92388 -0.37533 -0.108386 0.83147 -0.544895 -0.13795 0.707107 -0.69352 
-0.162212 0.55557 -0.815493 -0.18024 0.382683 -0.906127 -0.191342 0.19509 -0.96194 
-0.19509 0 -0.980785 -0.191342 -0.19509 -0.96194 -0.18024 -0.382683 -0.906127 
-0.162212 -0.55557 -0.815493 -0.13795 -0.707107 -0.69352 -0.108386 -0.83147 -0.544895 
-0.0746578 -0.92388 -0.37533 -0.0380602 -0.980785 -0.191342 0 0.980785 -0.19509 
0 0.92388 -0.382683 0 0.83147 -0.55557 0 0.707107 -0.707107 
0 0.55557 -0.83147 0 0.382683 -0.92388 0 0.19509 -0.980785 
0 0 -1 0 -0.19509 -0.980785 0 -0.382683 -0.92388 
0 -0.55557 -0.83147 0 -0.707107 -0.707107 0 -0.83147 -0.55557 
0 -0.92388 -0.382683 0 -0.980785 -0.19509 0.0380602 0.980785 -0.191342 
0.0746578 0.92388 -0.37533 0.108386 0.83147 -0.544895 0.13795 0.707107 -0.69352 
0.162212 0.55557 -0.815493 0.18024 0.382683 -0.906127 0.191342 0.19509 -0.96194 
[...]
CELL_DATA 960
FIELD FieldData 2
v 1 960 double
0.377432 0.739546 0.650571 0.598029 0.710376 0.251353 0.0180573 -0.301318 -0.401133 
-0.387089 -0.300047 -0.122812 -0.0510274 0.0201261 0.033244 0.0201261 0.033244 -0.122812 
-0.0510274 -0.387089 -0.300047 -0.301318 -0.401133 0.251353 0.0180573 0.598029 0.710376 
0.739546 0.650571 0.377432 0.364354 0.637493 0.714152 0.595619 0.69818 0.0114444 
0.245247 -0.32017 -0.450934 -0.3478 -0.479914 -0.164041 -0.0612547 0.0648768 0.127669 
0.0648768 0.127669 -0.164041 -0.0612547 -0.3478 -0.479914 -0.32017 -0.450934 0.0114444 
0.245247 0.595619 0.69818 0.637493 0.714152 0.364354 0.338225 0.687171 0.584384 
0.583334 0.668192 0.00191288 0.237439 -0.525394 -0.404282 -0.463279 -0.601962 -0.0172493 
-0.202681 0.16508 0.289299 0.16508 0.289299 -0.0172493 -0.202681 -0.463279 -0.601962 
-0.525394 -0.404282 0.00191288 0.237439 0.583334 0.668192 0.687171 0.584384 0.338225 
0.299256 0.545414 0.602774 0.622766 0.524886 0.224417 -0.0172513 -0.603445 -0.441925 
-0.67509 -0.626794 -0.293069 -0.0572186 0.295233 0.471968 0.295233 0.471968 -0.293069 
-0.0572186 -0.67509 -0.626794 -0.603445 -0.441925 0.224417 -0.0172513 0.622766 0.524886 
0.545414 0.602774 0.299256 0.248089 0.535322 0.426794 0.49425 0.524678 -0.0119317 
0.199101 -0.436605 -0.62919 -0.685761 -0.76512 -0.0200301 -0.314846 0.592279 0.452732 
0.592279 0.452732 -0.0200301 -0.314846 -0.685761 -0.76512 -0.436605 -0.62919 -0.0119317 
0.199101 0.49425 0.524678 0.535322 0.426794 0.248089 0.186067 0.364773 0.382341 
0.433719 0.349693 0.145503 -0.0420908 -0.41273 -0.563255 -0.716085 -0.624443 -0.302563 
-0.00493573 0.621879 0.430579 0.621879 0.430579 -0.302563 -0.00493573 -0.716085 -0.624443 
-0.41273 -0.563255 0.145503 -0.0420908 0.433719 0.349693 0.364773 0.382341 0.186067 
0.115393 0.270029 0.181787 0.288429 0.211701 0.0853714 -0.0423566 -0.41669 -0.222378 
-0.541071 -0.421541 -0.0488636 -0.241556 0.486819 0.286212 0.486819 0.286212 -0.0488636 
-0.241556 -0.541071 -0.421541 -0.41669 -0.222378 0.0853714 -0.0423566 0.288429 0.211701 
0.270029 0.181787 0.115393 0.0391126 0.105507 0.0663941 0.117021 0.050627 0.0175789 
0.050627 -0.162442 -0.0330481 -0.237225 -0.129394 -0.0572397 -0.107831 0.20135 0.050591 
0.20135 0.050591 -0.0572397 -0.107831 -0.237225 -0.129394 -0.162442 -0.0330481 0.0175789 
0.050627 0.117021 0.050627 0.105507 0.0663941 0.0391126 -0.0391126 -0.0663941 -0.105507 
-0.050627 -0.117021 -0.050627 -0.0175789 0.0330481 0.162442 0.129394 0.237225 0.107831 
0.0572397 -0.050591 -0.20135 -0.050591 -0.20135 0.107831 0.0572397 0.129394 0.237225 
0.0330481 0.162442 -0.050627 -0.0175789 -0.050627 -0.117021 -0.0663941 -0.105507 -0.0391126 
-0.115393 -0.181787 -0.270029 -0.211701 -0.288429 0.0423566 -0.0853714 0.222378 0.41669 
0.421541 0.541071 0.241556 0.0488636 -0.286212 -0.486819 -0.286212 -0.486819 0.241556 
0.0488636 0.421541 0.541071 0.222378 0.41669 0.0423566 -0.0853714 -0.211701 -0.288429 
-0.181787 -0.270029 -0.115393 -0.186067 -0.382341 -0.364773 -0.349693 -0.433719 0.0420908 
-0.145503 0.563255 0.41273 0.624443 0.716085 0.00493573 0.302563 -0.430579 -0.621879 
-0.430579 -0.621879 0.00493573 0.302563 0.624443 0.716085 0.563255 0.41273 0.0420908 
-0.145503 -0.349693 -0.433719 -0.382341 -0.364773 -0.186067 -0.248089 -0.426794 -0.535322 
-0.524678 -0.49425 -0.199101 0.0119317 0.62919 0.436605 0.76512 0.685761 0.314846 
0.0200301 -0.452732 -0.592279 -0.452732 -0.592279 0.314846 0.0200301 0.76512 0.685761 
0.62919 0.436605 -0.199101 0.0119317 -0.524678 -0.49425 -0.426794 -0.535322 -0.248089 
-0.299256 -0.602774 -0.545414 -0.524886 -0.622766 0.0172513 -0.224417 0.441925 0.603445 
0.626794 0.67509 0.0572186 0.293069 -0.471968 -0.295233 -0.471968 -0.295233 0.0572186 
0.293069 0.626794 0.67509 0.441925 0.603445 0.0172513 -0.224417 -0.524886 -0.622766 
-0.602774 -0.545414 -0.299256 -0.338225 -0.584384 -0.687171 -0.668192 -0.583334 -0.237439 
-0.00191288 0.404282 0.525394 0.601962 0.463279 0.202681 0.0172493 -0.289299 -0.16508 
-0.289299 -0.16508 0.202681 0.0172493 0.601962 0.463279 0.404282 0.525394 -0.237439 
-0.00191288 -0.668192 -0.583334 -0.584384 -0.687171 -0.338225 -0.364354 -0.714152 -0.637493 
-0.69818 -0.595619 -0.245247 -0.0114444 0.450934 0.32017 0.479914 0.3478 0.0612547 
0.164041 -0.127669 -0.0648768 -0.127669 -0.0648768 0.0612547 0.164041 0.479914 0.3478 
0.450934 0.32017 -0.245247 -0.0114444 -0.69818 -0.595619 -0.714152 -0.637493 -0.364354 
-0.377432 -0.650571 -0.739546 -0.710376 -0.598029 -0.0180573 -0.251353 0.401133 0.301318 
0.300047 0.387089 0.0510274 0.122812 -0.033244 -0.0201261 -0.033244 -0.0201261 0.0510274 
0.122812 0.300047 0.387089 0.401133 0.301318 -0.0180573 -0.251353 -0.710376 -0.598029 
-0.650571 -0.739546 -0.377432 -0.377432 -0.739546 -0.650571 -0.598029 -0.710376 -0.251353 
-0.0180573 0.301318 0.401133 0.387089 0.300047 0.122812 0.0510274 -0.0201261 -0.033244 
-0.0201261 -0.033244 0.122812 0.0510274 0.387089 0.300047 0.301318 0.401133 -0.251353 
-0.0180573 -0.598029 -0.710376 -0.739546 -0.650571 -0.377432 -0.364354 -0.637493 -0.714152 
-0.595619 -0.69818 -0.0114444 -0.245247 0.32017 0.450934 0.3478 0.479914 0.164041 
0.0612547 -0.0648768 -0.127669 -0.0648768 -0.127669 0.164041 0.0612547 0.3478 0.479914 
0.32017 0.450934 -0.0114444 -0.245247 -0.595619 -0.69818 -0.637493 -0.714152 -0.364354 
-0.338225 -0.687171 -0.584384 -0.583334 -0.668192 -0.00191288 -0.237439 0.525394 0.404282 
0.463279 0.601962 0.0172493 0.202681 -0.16508 -0.289299 -0.16508 -0.289299 0.0172493 
0.202681 0.463279 0.601962 0.525394 0.404282 -0.00191288 -0.237439 -0.583334 -0.668192 
-0.687171 -0.584384 -0.338225 -0.299256 -0.545414 -0.602774 -0.622766 -0.524886 -0.224417 
0.0172513 0.603445 0.441925 0.67509 0.626794 0.293069 0.0572186 -0.295233 -0.471968 
-0.295233 -0.471968 0.293069 0.0572186 0.67509 0.626794 0.603445 0.441925 -0.224417 
0.0172513 -0.622766 -0.524886 -0.545414 -0.602774 -0.299256 -0.248089 -0.535322 -0.426794 
-0.49425 -0.524678 0.0119317 -0.199101 0.436605 0.62919 0.685761 0.76512 0.0200301 
0.314846 -0.592279 -0.452732 -0.592279 -0.452732 0.0200301 0.314846 0.685761 0.76512 
0.436605 0.62919 0.0119317 -0.199101 -0.49425 -0.524678 -0.535322 -0.426794 -0.248089 
-0.186067 -0.364773 -0.382341 -0.433719 -0.349693 -0.145503 0.0420908 0.41273 0.563255 
0.716085 0.624443 0.302563 0.00493573 -0.621879 -0.430579 -0.621879 -0.430579 0.302563 
0.00493573 0.716085 0.624443 0.41273 0.563255 -0.145503 0.0420908 -0.433719 -0.349693 
-0.364773 -0.382341 -0.186067 -0.115393 -0.270029 -0.181787 -0.288429 -0.211701 -0.0853714 
0.0423566 0.41669 0.222378 0.541071 0.421541 0.0488636 0.241556 -0.486819 -0.286212 
-0.486819 -0.286212 0.0488636 0.241556 0.541071 0.421541 0.41669 0.222378 -0.0853714 
0.0423566 -0.288429 -0.211701 -0.270029 -0.181787 -0.115393 -0.0391126 -0.105507 -0.0663941 
-0.117021 -0.050627 -0.0175789 -0.050627 0.162442 0.0330481 0.237225 0.129394 0.0572397 
0.107831 -0.20135 -0.050591 -0.20135 -0.050591 0.0572397 0.107831 0.237225 0.129394 
0.162442 0.0330481 -0.0175789 -0.050627 -0.117021 -0.050627 -0.105507 -0.0663941 -0.0391126 
0.0391126 0.0663941 0.105507 0.050627 0.117021 0.050627 0.0175789 -0.0330481 -0.162442 
-0.129394 -0.237225 -0.107831 -0.0572397 0.050591 0.20135 0.050591 0.20135 -0.107831 
-0.0572397 -0.129394 -0.237225 -0.0330481 -0.162442 0.050627 0.0175789 0.050627 0.117021 
0.0663941 0.105507 0.0391126 0.115393 0.181787 0.270029 0.211701 0.288429 -0.0423566 
0.0853714 -0.222378 -0.41669 -0.421541 -0.541071 -0.241556 -0.0488636 0.286212 0.486819 
0.286212 0.486819 -0.241556 -0.0488636 -0.421541 -0.541071 -0.222378 -0.41669 -0.0423566 
0.0853714 0.211701 0.288429 0.181787 0.270029 0.115393 0.186067 0.382341 0.364773 
0.349693 0.433719 -0.0420908 0.145503 -0.563255 -0.41273 -0.624443 -0.716085 -0.00493573 
-0.302563 0.430579 0.621879 0.430579 0.621879 -0.00493573 -0.302563 -0.624443 -0.716085 
-0.563255 -0.41273 -0.0420908 0.145503 0.349693 0.433719 0.382341 0.364773 0.186067 
0.248089 0.426794 0.535322 0.524678 0.49425 0.199101 -0.0119317 -0.62919 -0.436605 
-0.76512 -0.685761 -0.314846 -0.0200301 0.452732 0.592279 0.452732 0.592279 -0.314846 
-0.0200301 -0.76512 -0.685761 -0.62919 -0.436605 0.199101 -0.0119317 0.524678 0.49425 
0.426794 0.535322 0.248089 0.299256 0.602774 0.545414 0.524886 0.622766 -0.0172513 
0.224417 -0.441925 -0.603445 -0.626794 -0.67509 -0.0572186 -0.293069 0.471968 0.295233 
0.471968 0.295233 -0.0572186 -0.293069 -0.626794 -0.67509 -0.441925 -0.603445 -0.0172513 
0.224417 0.524886 0.622766 0.602774 0.545414 0.299256 0.338225 0.584384 0.687171 
0.668192 0.583334 0.237439 0.00191288 -0.404282 -0.525394 -0.601962 -0.463279 -0.202681 
-0.0172493 0.289299 0.16508 0.289299 0.16508 -0.202681 -0.0172493 -0.601962 -0.463279 
-0.404282 -0.525394 0.237439 0.00191288 0.668192 0.583334 0.584384 0.687171 0.338225 
0.364354 0.714152 0.637493 0.69818 0.595619 0.245247 0.0114444 -0.450934 -0.32017 
-0.479914 -0.3478 -0.0612547 -0.164041 0.127669 0.0648768 0.127669 0.0648768 -0.0612547 
-0.164041 -0.479914 -0.3478 -0.450934 -0.32017 0.245247 0.0114444 0.69818 0.595619 
0.714152 0.637493 0.364354 0.377432 0.650571 0.739546 0.710376 0.598029 0.0180573 
0.251353 -0.401133 -0.301318 -0.300047 -0.387089 -0.0510274 -0.122812 0.033244 0.0201261 
0.033244 0.0201261 -0.0510274 -0.122812 -0.300047 -0.387089 -0.401133 -0.301318 0.0180573 
0.251353 0.710376 0.598029 0.650571 0.739546 0.377432 
jumpEn 1 960 double
3.18883 7.79928 5.74956 6.34026 8.47467 3.72463 -0.568217 -3.18259 -4.86569 
-3.80301 -1.32478 0.330886 1.40918 1.07363 0.333364 1.07363 0.333364 0.330886 
1.40918 -3.80301 -1.32478 -3.18259 -4.86569 3.72463 -0.568217 6.34026 8.47467 
7.79928 5.74956 3.18883 3.20643 4.92539 7.44148 6.35713 8.2792 -0.462245 
5.14947 -2.66508 -4.48082 -2.11311 -5.63198 -1.0098 0.245662 1.79478 1.77162 
1.79478 1.77162 -1.0098 0.245662 -2.11311 -5.63198 -2.66508 -4.48082 -0.462245 
5.14947 6.35713 8.2792 4.92539 7.44148 3.20643 2.8161 7.54845 5.80219 
6.77204 8.14513 -0.873284 4.25109 -6.23208 -2.9568 -3.89099 -6.56835 2.2356 
-0.711079 2.27009 4.3579 2.27009 4.3579 2.2356 -0.711079 -3.89099 -6.56835 
-6.23208 -2.9568 -0.873284 4.25109 6.77204 8.14513 7.54845 5.80219 2.8161 
2.78152 3.64545 6.76516 6.40496 6.28476 4.2542 0.271757 -7.67458 -3.96206 
-7.31984 -6.65425 -3.9202 -0.0639981 4.19072 6.28347 4.19072 6.28347 -3.9202 
-0.0639981 -7.31984 -6.65425 -7.67458 -3.96206 4.2542 0.271757 6.40496 6.28476 
3.64545 6.76516 2.78152 2.08049 6.06735 4.58066 6.91248 7.20675 1.14071 
4.90128 -3.10762 -8.01874 -8.56831 -9.27333 1.00565 -4.15447 8.88038 5.75964 
8.88038 5.75964 1.00565 -4.15447 -8.56831 -9.27333 -3.10762 -8.01874 1.14071 
4.90128 6.91248 7.20675 6.06735 4.58066 2.08049 1.81745 2.15598 4.73218 
4.04667 5.38544 2.69067 0.137285 -2.14834 -7.25203 -8.04011 -8.27571 -4.40917 
1.24304 9.7133 5.20627 9.7133 5.20627 -4.40917 1.24304 -8.04011 -8.27571 
-2.14834 -7.25203 2.69067 0.137285 4.04667 5.38544 2.15598 4.73218 1.81745 
0.9567 3.13517 2.20604 3.02969 3.39382 2.77619 -0.892139 -4.07299 -0.732653 
-6.74365 -5.16603 -0.870555 -4.62388 7.60118 4.03049 7.60118 4.03049 -0.870555 
-4.62388 -6.74365 -5.16603 -4.07299 -0.732653 2.77619 -0.892139 3.02969 3.39382 
3.13517 2.20604 0.9567 0.452457 0.239865 1.10981 1.00774 0.184265 1.28604 
2.91931 -2.012 1.0354 -2.73993 -2.23543 0.153509 -3.48532 3.2089 -0.0766221 
3.2089 -0.0766221 0.153509 -3.48532 -2.73993 -2.23543 -2.012 1.0354 1.28604 
2.91931 1.00774 0.184265 0.239865 1.10981 0.452457 -0.452457 -1.10981 -0.239865 
-0.184265 -1.00774 -2.91931 -1.28604 -1.0354 2.012 2.23543 2.73993 3.48532 
-0.153509 0.0766221 -3.2089 0.0766221 -3.2089 3.48532 -0.153509 2.23543 2.73993 
-1.0354 2.012 -2.91931 -1.28604 -0.184265 -1.00774 -1.10981 -0.239865 -0.452457 
-0.9567 -2.20604 -3.13517 -3.39382 -3.02969 0.892139 -2.77619 0.732653 4.07299 
5.16603 6.74365 4.62388 0.870555 -4.03049 -7.60118 -4.03049 -7.60118 4.62388 
0.870555 5.16603 6.74365 0.732653 4.07299 0.892139 -2.77619 -3.39382 -3.02969 
-2.20604 -3.13517 -0.9567 -1.81745 -4.73218 -2.15598 -5.38544 -4.04667 -0.137285 
-2.69067 7.25203 2.14834 8.27571 8.04011 -1.24304 4.40917 -5.20627 -9.7133 
-5.20627 -9.7133 -1.24304 4.40917 8.27571 8.04011 7.25203 2.14834 -0.137285 
-2.69067 -5.38544 -4.04667 -4.73218 -2.15598 -1.81745 -2.08049 -4.58066 -6.06735 
-7.20675 -6.91248 -4.90128 -1.14071 8.01874 3.10762 9.27333 8.56831 4.15447 
-1.00565 -5.75964 -8.88038 -5.75964 -8.88038 4.15447 -1.00565 9.27333 8.56831 
8.01874 3.10762 -4.90128 -1.14071 -7.20675 -6.91248 -4.58066 -6.06735 -2.08049 
-2.78152 -6.76516 -3.64545 -6.28476 -6.40496 -0.271757 -4.2542 3.96206 7.67458 
6.65425 7.31984 0.0639981 3.9202 -6.28347 -4.19072 -6.28347 -4.19072 0.0639981 
3.9202 6.65425 7.31984 3.96206 7.67458 -0.271757 -4.2542 -6.28476 -6.40496 
-6.76516 -3.64545 -2.78152 -2.8161 -5.80219 -7.54845 -8.14513 -6.77204 -4.25109 
0.873284 2.9568 6.23208 6.56835 3.89099 0.711079 -2.2356 -4.3579 -2.27009 
-4.3579 -2.27009 0.711079 -2.2356 6.56835 3.89099 2.9568 6.23208 -4.25109 
0.873284 -8.14513 -6.77204 -5.80219 -7.54845 -2.8161 -3.20643 -7.44148 -4.92539 
-8.2792 -6.35713 -5.14947 0.462245 4.48082 2.66508 5.63198 2.11311 -0.245662 
1.0098 -1.77162 -1.79478 -1.77162 -1.79478 -0.245662 1.0098 5.63198 2.11311 
4.48082 2.66508 -5.14947 0.462245 -8.2792 -6.35713 -7.44148 -4.92539 -3.20643 
-3.18883 -5.74956 -7.79928 -8.47467 -6.34026 0.568217 -3.72463 4.86569 3.18259 
1.32478 3.80301 -1.40918 -0.330886 -0.333364 -1.07363 -0.333364 -1.07363 -1.40918 
-0.330886 1.32478 3.80301 4.86569 3.18259 0.568217 -3.72463 -8.47467 -6.34026 
-5.74956 -7.79928 -3.18883 -3.18883 -7.79928 -5.74956 -6.34026 -8.47467 -3.72463 
0.568217 3.18259 4.86569 3.80301 1.32478 -0.330886 -1.40918 -1.07363 -0.333364 
-1.07363 -0.333364 -0.330886 -1.40918 3.80301 1.32478 3.18259 4.86569 -3.72463 
0.568217 -6.34026 -8.47467 -7.79928 -5.74956 -3.18883 -3.20643 -4.92539 -7.44148 
-6.35713 -8.2792 0.462245 -5.14947 2.66508 4.48082 2.11311 5.63198 1.0098 
-0.245662 -1.79478 -1.77162 -1.79478 -1.77162 1.0098 -0.245662 2.11311 5.63198 
2.66508 4.48082 0.462245 -5.14947 -6.35713 -8.2792 -4.92539 -7.44148 -3.20643 
-2.8161 -7.54845 -5.80219 -6.77204 -8.14513 0.873284 -4.25109 6.23208 2.9568 
3.89099 6.56835 -2.2356 0.711079 -2.27009 -4.3579 -2.27009 -4.3579 -2.2356 
0.711079 3.89099 6.56835 6.23208 2.9568 0.873284 -4.25109 -6.77204 -8.14513 
-7.54845 -5.80219 -2.8161 -2.78152 -3.64545 -6.76516 -6.40496 -6.28476 -4.2542 
-0.271757 7.67458 3.96206 7.31984 6.65425 3.9202 0.0639981 -4.19072 -6.28347 
-4.19072 -6.28347 3.9202 0.0639981 7.31984 6.65425 7.67458 3.96206 -4.2542 
-0.271757 -6.40496 -6.28476 -3.64545 -6.76516 -2.78152 -2.08049 -6.06735 -4.58066 
-6.91248 -7.20675 -1.14071 -4.90128 3.10762 8.01874 8.56831 9.27333 -1.00565 
4.15447 -8.88038 -5.75964 -8.88038 -5.75964 -1.00565 4.15447 8.56831 9.27333 
3.10762 8.01874 -1.14071 -4.90128 -6.91248 -7.20675 -6.06735 -4.58066 -2.08049 
-1.81745 -2.15598 -4.73218 -4.04667 -5.38544 -2.69067 -0.137285 2.14834 7.25203 
8.04011 8.27571 4.40917 -1.24304 -9.7133 -5.20627 -9.7133 -5.20627 4.40917 
-1.24304 8.04011 8.27571 2.14834 7.25203 -2.69067 -0.137285 -4.04667 -5.38544 
-2.15598 -4.73218 -1.81745 -0.9567 -3.13517 -2.20604 -3.02969 -3.39382 -2.77619 
0.892139 4.07299 0.732653 6.74365 5.16603 0.870555 4.62388 -7.60118 -4.03049 
-7.60118 -4.03049 0.870555 4.62388 6.74365 5.16603 4.07299 0.732653 -2.77619 
0.892139 -3.02969 -3.39382 -3.13517 -2.20604 -0.9567 -0.452457 -0.239865 -1.10981 
-1.00774 -0.184265 -1.28604 -2.91931 2.012 -1.0354 2.73993 2.23543 -0.153509 
3.48532 -3.2089 0.0766221 -3.2089 0.0766221 -0.153509 3.48532 2.73993 2.23543 
2.012 -1.0354 -1.28604 -2.91931 -1.00774 -0.184265 -0.239865 -1.10981 -0.452457 
0.452457 1.10981 0.239865 0.184265 1.00774 2.91931 1.28604 1.0354 -2.012 
-2.23543 -2.73993 -3.48532 0.153509 -0.0766221 3.2089 -0.0766221 3.2089 -3.48532 
0.153509 -2.23543 -2.73993 1.0354 -2.012 2.91931 1.28604 0.184265 1.00774 
1.10981 0.239865 0.452457 0.9567 2.20604 3.13517 3.39382 3.02969 -0.892139 
2.77619 -0.732653 -4.07299 -5.16603 -6.74365 -4.62388 -0.870555 4.03049 7.60118 
4.03049 7.60118 -4.62388 -0.870555 -5.16603 -6.74365 -0.732653 -4.07299 -0.892139 
2.77619 3.39382 3.02969 2.20604 3.13517 0.9567 1.81745 4.73218 2.15598 
5.38544 4.04667 0.137285 2.69067 -7.25203 -2.14834 -8.27571 -8.04011 1.24304 
-4.40917 5.20627 9.7133 5.20627 9.7133 1.24304 -4.40917 -8.27571 -8.04011 
-7.25203 -2.14834 0.137285 2.69067 5.38544 4.04667 4.73218 2.15598 1.81745 
2.08049 4.58066 6.06735 7.20675 6.91248 4.90128 1.14071 -8.01874 -3.10762 
-9.27333 -8.56831 -4.15447 1.00565 5.75964 8.88038 5.75964 8.88038 -4.15447 
1.00565 -9.27333 -8.56831 -8.01874 -3.10762 4.90128 1.14071 7.20675 6.91248 
4.58066 6.06735 2.08049 2.78152 6.76516 3.64545 6.28476 6.40496 0.271757 
4.2542 -3.96206 -7.67458 -6.65425 -7.31984 -0.0639981 -3.9202 6.28347 4.19072 
6.28347 4.19072 -0.0639981 -3.9202 -6.65425 -7.31984 -3.96206 -7.67458 0.271757 
4.2542 6.28476 6.40496 6.76516 3.64545 2.78152 2.8161 5.80219 7.54845 
8.14513 6.77204 4.25109 -0.873284 -2.9568 -6.23208 -6.56835 -3.89099 -0.711079 
2.2356 4.3579 2.27009 4.3579 2.27009 -0.711079 2.2356 -6.56835 -3.89099 
-2.9568 -6.23208 4.25109 -0.873284 8.14513 6.77204 5.80219 7.54845 2.8161 
3.20643 7.44148 4.92539 8.2792 6.35713 5.14947 -0.462245 -4.48082 -2.66508 
-5.63198 -2.11311 0.245662 -1.0098 1.77162 1.79478 1.77162 1.79478 0.245662 
-1.0098 -5.63198 -2.11311 -4.48082 -2.66508 5.14947 -0.462245 8.2792 6.35713 
7.44148 4.92539 3.20643 3.18883 5.74956 7.79928 8.47467 6.34026 -0.568217 
3.72463 -4.86569 -3.18259 -1.32478 -3.80301 1.40918 0.330886 0.333364 1.07363 
0.333364 1.07363 1.40918 0.330886 -1.32478 -3.80301 -4.86569 -3.18259 -0.568217 
3.72463 8.47467 6.34026 5.74956 7.79928 3.18883 
POINT_DATA 482
NORMALS Normals float
4.67936e-10 1 -1.81325e-09 0.191325 0.980789 0.0380568 0.227152 0.973859 3.11865e-10 
0.361208 0.929163 0.0786406 0.412766 0.910837 -6.24083e-10 0.557569 0.823577 0.104109 
0.555535 0.831493 9.37245e-10 0.709914 0.692995 0.125621 0.683494 0.729956 -3.74977e-09 
0.820874 0.54382 0.174429 0.81277 0.582585 0 0.916862 0.364378 0.163075 
0.910813 0.412819 -2.50414e-09 0.962058 0.195108 0.190728 0.973852 0.227183 0 
0.973856 -1.25308e-09 0.227168 1 0 -9.40313e-10 0.962058 -0.195108 0.190728 
0.973852 -0.227183 -1.25278e-09 0.916862 -0.364378 0.163075 0.910813 -0.412819 -2.50414e-09 
0.820874 -0.54382 0.174429 0.81277 -0.582585 0 0.709914 -0.692995 0.125621 
0.683494 -0.729956 -1.87488e-09 0.557569 -0.823577 0.104109 0.555535 -0.831493 9.37245e-10 
0.361208 -0.929163 0.0786406 0.412766 -0.910837 3.12042e-10 0.191325 -0.980789 0.0380568 
0.227152 -0.973859 3.11865e-10 4.67936e-10 -1 -1.81325e-09 0.209861 0.973859 0.0869274 
0.366683 0.916136 0.16198 0.512219 0.831491 0.21507 0.665785 0.697093 0.266065 
0.771323 0.53904 0.338374 0.863138 0.369649 0.344024 0.916857 0.175719 0.358464 
0.910825 0 0.412792 0.916857 -0.175719 0.358464 0.863138 -0.369649 0.344024 
0.771323 -0.53904 0.338374 0.665785 -0.697093 0.266065 0.512219 -0.831491 0.21507 
0.366683 -0.916136 0.16198 0.209861 -0.973859 0.0869274 0.162197 0.980789 0.108377 
0.29279 0.935949 0.195636 0.438979 0.849272 0.293317 0.573479 0.716974 0.396321 
0.690511 0.571805 0.442983 0.757313 0.412819 0.506021 0.820861 0.208866 0.531566 
0.812792 0 0.582554 0.820861 -0.208866 0.531566 0.757313 -0.412819 0.506021 
0.690511 -0.571805 0.442983 0.573479 -0.716974 0.396321 0.438979 -0.849272 0.293317 
0.292789 -0.935949 0.195636 0.162197 -0.980789 0.108377 0.160621 0.973859 0.160621 
0.29187 0.910837 0.291869 0.411906 0.812814 0.411906 0.499977 0.70714 0.499977 
0.587921 0.555606 0.587921 0.661802 0.35219 0.661802 0.697671 0.162818 0.697671 
0.707107 0 0.707107 0.697671 -0.162818 0.697671 0.661802 -0.35219 0.661802 
0.587921 -0.555606 0.587921 0.499977 -0.70714 0.499977 0.411906 -0.812814 0.411906 
0.291869 -0.910837 0.291869 0.160621 -0.973859 0.160621 0.108377 0.980789 0.162197 
0.195636 0.935949 0.29279 0.293317 0.849272 0.438979 0.396321 0.716974 0.573479 