# vtk DataFile Version 3.0
vtk output
ASCII
DATASET POLYDATA
POINTS 482 float
0 1 0 0.191342 0.980785 0.0380602 0.19509 0.980785 0 
0.37533 0.92388 0.0746578 0.382683 0.92388 0 0.544895 0.83147 0.108386 
0.55557 0.83147 0 0.69352 0.707107 0.13795 0.707107 0.707107 0 
0.815493 0.55557 0.162212 0.83147 0.55557 0 0.906127 0.382683 0.18024 
0.92388 0.382683 0 0.96194 0.19509 0.191342 0.980785 0.19509 0 
0.980785 0 0.19509 1 0 0 0.96194 -0.19509 0.191342 
0.980785 -0.19509 0 0.906127 -0.382683 0.18024 0.92388 -0.382683 0 
0.815493 -0.55557 0.162212 0.83147 -0.55557 0 0.69352 -0.707107 0.13795 
0.707107 -0.707107 0 0.544895 -0.83147 0.108386 0.55557 -0.83147 0 
0.37533 -0.92388 0.0746578 0.382683 -0.92388 0 0.191342 -0.980785 0.0380602 
0.19509 -0.980785 0 0 -1 0 0.18024 0.980785 0.0746578 
0.353553 0.92388 0.146447 0.51328 0.83147 0.212608 0.653282 0.707107 0.270598 
0.768178 0.55557 0.31819 0.853553 0.382683 0.353553 0.906127 0.19509 0.37533 
0.92388 0 0.382683 0.906127 -0.19509 0.37533 0.853553 -0.382683 0.353553 
0.768178 -0.55557 0.31819 0.653282 -0.707107 0.270598 0.51328 -0.83147 0.212608 
0.353553 -0.92388 0.146447 0.18024 -0.980785 0.0746578 0.162212 0.980785 0.108386 
0.31819 0.92388 0.212608 0.46194 0.83147 0.308658 0.587938 0.707107 0.392847 
0.691342 0.55557 0.46194 0.768178 0.382683 0.51328 0.815493 0.19509 0.544895 
0.83147 0 0.55557 0.815493 -0.19509 0.544895 0.768178 -0.382683 0.51328 
0.691342 -0.55557 0.46194 0.587938 -0.707107 0.392847 0.46194 -0.83147 0.308658 
0.31819 -0.92388 0.212608 0.162212 -0.980785 0.108386 0.13795 0.980785 0.13795 
0.270598 0.92388 0.270598 0.392847 0.83147 0.392847 0.5 0.707107 0.5 
0.587938 0.55557 0.587938 0.653282 0.382683 0.653282 0.69352 0.19509 0.69352 
0.707107 0 0.707107 0.69352 -0.19509 0.69352 0.653282 -0.382683 0.653282 
0.587938 -0.55557 0.587938 0.5 -0.707107 0.5 0.392847 -0.83147 0.392847 
0.270598 -0.92388 0.270598 0.13795 -0.980785 0.13795 0.108386 0.980785 0.162212 
0.212608 0.92388 0.31819 0.308658 0.83147 0.46194 0.392847 0.707107 0.587938 
0.46194 0.55557 0.691342 0.51328 0.382683 0.768178 0.544895 0.19509 0.815493 
0.55557 0 0.83147 0.544895 -0.19509 0.815493 0.51328 -0.382683 0.768178 
0.46194 -0.55557 0.691342 0.392847 -0.707107 0.587938 0.308658 -0.83147 0.46194 
0.212608 -0.92388 0.31819 0.108386 -0.980785 0.162212 0.0746578 0.980785 0.18024 
0.146447 0.92388 0.353553 0.212608 0.83147 0.51328 0.270598 0.707107 0.653282 
0.31819 0.55557 0.768178 0.353553 0.382683 0.853553 0.37533 0.19509 0.906127 
0.382683 0 0.92388 0.37533 -0.19509 0.906127 0.353553 -0.382683 0.853553 
0.31819 -0.55557 0.768178 0.270598 -0.707107 0.653282 0.212608 -0.83147 0.51328 
0.146447 -0.92388 0.353553 0.0746578 -0.980785 0.18024 0.0380602 0.980785 0.191342 
0.0746578 0.92388 0.37533 0.108386 0.83147 0.544895 0.13795 0.707107 0.69352 
0.162212 0.55557 0.815493 0.18024 0.382683 0.906127 0.191342 0.19509 0.96194 
0.19509 0 0.980785 0.191342 -0.19509 0.96194 0.18024 -0.382683 0.906127 
0.162212 -0.55557 0.815493 0.13795 -0.707107 0.69352 0.108386 -0.83147 0.544895 
0.0746578 -0.92388 0.37533 0.0380602 -0.980785 0.191342 0 0.980785 0.19509 
0 0.92388 0.382683 0 0.83147 0.55557 0 0.707107 0.707107 
0 0.55557 0.83147 0 0.382683 0.92388 0 0.19509 0.980785 
0 0 1 0 -0.19509 0.980785 0 -0.382683 0.92388 
0 -0.55557 0.83147 0 -0.707107 0.707107 0 -0.83147 0.55557 
0 -0.92388 0.382683 0 -0.980785 0.19509 -0.0380602 0.980785 0.191342 
-0.0746578 0.92388 0.37533 -0.108386 0.83147 0.544895 -0.13795 0.707107 0.69352 
-0.162212 0.55557 0.815493 -0.18024 0.382683 0.906127 -0.191342 0.19509 0.96194 
-0.19509 0 0.980785 -0.191342 -0.19509 0.96194 -0.18024 -0.382683 0.906127 
-0.162212 -0.55557 0.815493 -0.13795 -0.707107 0.69352 -0.108386 -0.83147 0.544895 
-0.0746578 -0.92388 0.37533 -0.0380602 -0.980785 0.191342 -0.0746578 0.980785 0.18024 
-0.146447 0.92388 0.353553 -0.212608 0.83147 0.51328 -0.270598 0.707107 0.653282 
-0.31819 0.55557 0.768178 -0.353553 0.382683 0.853553 -0.37533 0.19509 0.906127 
-0.382683 0 0.92388 -0.37533 -0.19509 0.906127 -0.353553 -0.382683 0.853553 
-0.31819 -0.55557 0.768178 -0.270598 -0.707107 0.653282 -0.212608 -0.83147 0.51328 
-0.146447 -0.92388 0.353553 -0.0746578 -0.980785 0.18024 -0.108386 0.980785 0.162212 
-0.212608 0.92388 0.31819 -0.308658 0.83147 0.46194 -0.392847 0.707107 0.587938 
-0.46194 0.55557 0.691342 -0.51328 0.382683 0.768178 -0.544895 0.19509 0.815493 
-0.55557 0 0.83147 -0.544895 -0.19509 0.815493 -0.51328 -0.382683 0.768178 
-0.46194 -0.55557 0.691342 -0.392847 -0.707107 0.587938 -0.308658 -0.83147 0.46194 
-0.212608 -0.92388 0.31819 -0.108386 -0.980785 0.162212 -0.13795 0.980785 0.13795 
-0.270598 0.92388 0.270598 -0.392847 0.83147 0.392847 -0.5 0.707107 0.5 
-0.587938 0.55557 0.587938 -0.653282 0.382683 0.653282 -0.69352 0.19509 0.69352 
-0.707107 0 0.707107 -0.69352 -0.19509 0.69352 -0.653282 -0.382683 0.653282 
-0.587938 -0.55557 0.587938 -0.5 -0.707107 0.5 -0.392847 -0.83147 0.392847 
-0.270598 -0.92388 0.270598 -0.13795 -0.980785 0.13795 -0.162212 0.980785 0.108386 
-0.31819 0.92388 0.212608 -0.46194 0.83147 0.308658 -0.587938 0.707107 0.392847 
-0.691342 0.55557 0.46194 -0.768178 0.382683 0.51328 -0.815493 0.19509 0.544895 
-0.83147 0 0.55557 -0.815493 -0.19509 0.544895 -0.768178 -0.382683 0.51328 
-0.691342 -0.55557 0.46194 -0.587938 -0.707107 0.392847 -0.46194 -0.83147 0.308658 
-0.31819 -0.92388 0.212608 -0.162212 -0.980785 0.108386 -0.18024 0.980785 0.0746578 
-0.353553 0.92388 0.146447 -0.51328 0.83147 0.212608 -0.653282 0.707107 0.270598 
-0.768178 0.55557 0.31819 -0.853553 0.382683 0.353553 -0.906127 0.19509 0.37533 
-0.92388 0 0.382683 -0.906127 -0.19509 0.37533 -0.853553 -0.382683 0.353553 
-0.768178 -0.55557 0.31819 -0.653282 -0.707107 0.270598 -0.51328 -0.83147 0.212608 
-0.353553 -0.92388 0.146447 -0.18024 -0.980785 0.0746578 -0.191342 0.980785 0.0380602 
-0.37533 0.92388 0.0746578 -0.544895 0.83147 0.108386 -0.69352 0.707107 0.13795 
-0.815493 0.55557 0.162212 -0.906127 0.382683 0.18024 -0.96194 0.19509 0.191342 
-0.980785 0 0.19509 -0.96194 -0.19509 0.191342 -0.906127 -0.382683 0.18024 
-0.815493 -0.55557 0.162212 -0.69352 -0.707107 0.13795 -0.544895 -0.83147 0.108386 
-0.37533 -0.92388 0.0746578 -0.191342 -0.980785 0.0380602 -0.19509 0.980785 0 
-0.382683 0.92388 0 -0.55557 0.83147 0 -0.707107 0.707107 0 
-0.83147 0.55557 0 -0.92388 0.382683 0 -0.980785 0.19509 0 
-1 0 0 -0.980785 -0.19509 0 -0.92388 -0.382683 0 
-0.83147 -0.55557 0 -0.707107 -0.707107 0 -0.55557 -0.83147 0 
-0.382683 -0.92388 0 -0.19509 -0.980785 0 -0.191342 0.980785 -0.0380602 
-0.37533 0.92388 -0.0746578 -0.544895 0.83147 -0.108386 -0.69352 0.707107 -0.13795 
-0.815493 0.55557 -0.162212 -0.906127 0.382683 -0.18024 -0.96194 0.19509 -0.191342 
-0.980785 0 -0.19509 -0.96194 -0.19509 -0.191342 -0.906127 -0.382683 -0.18024 
-0.815493 -0.55557 -0.162212 -0.69352 -0.707107 -0.13795 -0.544895 -0.83147 -0.108386 
-0.37533 -0.92388 -0.0746578 -0.191342 -0.980785 -0.0380602 -0.18024 0.980785 -0.0746578 
-0.353553 0.92388 -0.146447 -0.51328 0.83147 -0.212608 -0.653282 0.707107 -0.270598 
-0.768178 0.55557 -0.31819 -0.853553 0.382683 -0.353553 -0.906127 0.19509 -0.37533 
-0.92388 0 -0.382683 -0.906127 -0.19509 -0.37533 -0.853553 -0.382683 -0.353553 
-0.768178 -0.55557 -0.31819 -0.653282 -0.707107 -0.270598 -0.51328 -0.83147 -0.212608 
-0.353553 -0.92388 -0.146447 -0.18024 -0.980785 -0.0746578 -0.162212 0.980785 -0.108386 
-0.31819 0.92388 -0.212608 -0.46194 0.83147 -0.308658 -0.587938 0.707107 -0.392847 
-0.691342 0.55557 -0.46194 -0.768178 0.382683 -0.51328 -0.815493 0.19509 -0.544895 
-0.83147 0 -0.55557 -0.815493 -0.19509 -0.544895 -0.768178 -0.382683 -0.51328 
-0.691342 -0.55557 -0.46194 -0.587938 -0.707107 -0.392847 -0.46194 -0.83147 -0.308658 
-0.31819 -0.92388 -0.212608 -0.162212 -0.980785 -0.108386 -0.13795 0.980785 -0.13795 
-0.270598 0.92388 -0.270598 -0.392847 0.83147 -0.392847 -0.5 0.707107 -0.5 
-0.587938 0.55557 -0.587938 -0.653282 0.382683 -0.653282 -0.69352 0.19509 -0.69352 
-0.707107 0 -0.707107 -0.69352 -0.19509 -0.69352 -0.653282 -0.382683 -0.653282 
-0.587938 -0.55557 -0.587938 -0.5 -0.707107 -0.5 -0.392847 -0.83147 -0.392847 
-0.270598 -0.92388 -0.270598 -0.13795 -0.980785 -0.13795 -0.108386 0.980785 -0.162212 
-0.212608 0.92388 -0.31819 -0.308658 0.83147 -0.46194 -0.392847 0.707107 -0.587938 
-0.46194 0.55557 -0.691342 -0.51328 0.382683 -0.768178 -0.544895 0.19509 -0.815493 
-0.55557 0 -0.83147 -0.544895 -0.19509 -0.815493 -0.51328 -0.382683 -0.768178 
-0.46194 -0.55557 -0.691342 -0.392847 -0.707107 -0.587938 -0.308658 -0.83147 -0.46194 
-0.212608 -0.92388 -0.31819 -0.108386 -0.980785 -0.162212 -0.0746578 0.980785 -0.18024 
-0.146447 0.92388 -0.353553 -0.212608 0.83147 -0.51328 -0.270598 0.707107 -0.653282 
-0.31819 0.55557 -0.768178 -0.353553 0.382683 -0.853553 -0.37533 0.19509 -0.906127 
-0.382683 0 -0.92388 -0.37533 -0.19509 -0.906127 -0.353553 -0.382683 -0.853553 
-0.31819 -0.55557 -0.768178 -0.270598 -0.707107 -0.653282 -0.212608 -0.83147 -0.51328 
-0.146447 -0.92388 -0.353553 -0.0746578 -0.980785 -0.18024 -0.0380602 0.980785 -0.191342 
-0.0746578 0.92388 -0.37533 -0.108386 0.83147 -0.544895 -0.13795 0.707107 -0.69352 
-0.162212 0.55557 -0.815493 -0.18024 0.382683 -0.906127 -0.191342 0.19509 -0.96194 
-0.19509 0 -0.980785 -0.191342 -0.19509 -0.96194 -0.18024 -0.382683 -0.906127 
-0.162212 -0.55557 -0.815493 -0.13795 -0.707107 -0.69352 -0.108386 -0.83147 -0.544895 
-0.0746578 -0.92388 -0.37533 -0.0380602 -0.980785 -0.191342 0 0.980785 -0.19509 
0 0.92388 -0.382683 0 0.83147 -0.55557 0 0.707107 -0.707107 
0 0.55557 -0.83147 0 0.382683 -0.92388 0 0.19509 -0.980785 
0 0 -1 0 -0.19509 -0.980785 0 -0.382683 -0.92388 
0 -0.55557 -0.83147 0 -0.707107 -0.707107 0 -0.83147 -0.55557 
0 -0.92388 -0.382683 0 -0.980785 -0.19509 0.0380602 0.980785 -0.191342 
0.0746578 0.92388 -0.37533 0.108386 0.83147 -0.544895 0.13795 0.707107 -0.69352 
0.162212 0.55557 -0.815493 0.18024 0.382683 -0.906127 0.191342 0.19509 -0.96194 
[...]
CELL_DATA 960
FIELD FieldData 2
v 1 960 double
1.00438 1.00478 1.00454 1.00543 1.00507 1.00582 1.00623 1.00666 1.00708 
1.00747 1.00782 1.00812 1.00836 1.00853 1.00861 1.00853 1.00861 1.00812 
1.00836 1.00747 1.00782 1.00666 1.00708 1.00582 1.00623 1.00543 1.00507 
1.00478 1.00454 1.00438 1.00438 1.00454 1.00478 1.00543 1.00507 1.00623 
1.00582 1.00666 1.00708 1.00782 1.00747 1.00812 1.00836 1.00853 1.00861 
1.00853 1.00861 1.00812 1.00836 1.00782 1.00747 1.00666 1.00708 1.00623 
1.00582 1.00543 1.00507 1.00454 1.00478 1.00438 1.00438 1.00478 1.00454 
1.00543 1.00507 1.00623 1.00582 1.00708 1.00666 1.00782 1.00747 1.00836 
1.00812 1.00853 1.00861 1.00853 1.00861 1.00836 1.00812 1.00782 1.00747 
1.00708 1.00666 1.00623 1.00582 1.00543 1.00507 1.00478 1.00454 1.00438 
1.00438 1.00454 1.00478 1.00507 1.00543 1.00582 1.00623 1.00708 1.00666 
1.00747 1.00782 1.00812 1.00836 1.00853 1.00861 1.00853 1.00861 1.00812 
1.00836 1.00747 1.00782 1.00708 1.00666 1.00582 1.00623 1.00507 1.00543 
1.00454 1.00478 1.00438 1.00438 1.00478 1.00454 1.00543 1.00507 1.00623 
1.00582 1.00666 1.00708 1.00782 1.00747 1.00836 1.00812 1.00861 1.00853 
1.00861 1.00853 1.00836 1.00812 1.00782 1.00747 1.00666 1.00708 1.00623 
1.00582 1.00543 1.00507 1.00478 1.00454 1.00438 1.00438 1.00454 1.00478 
1.00507 1.00543 1.00582 1.00623 1.00666 1.00708 1.00747 1.00782 1.00812 
1.00836 1.00861 1.00853 1.00861 1.00853 1.00812 1.00836 1.00747 1.00782 
1.00666 1.00708 1.00582 1.00623 1.00507 1.00543 1.00454 1.00478 1.00438 
1.00438 1.00478 1.00454 1.00507 1.00543 1.00582 1.00623 1.00708 1.00666 
1.00747 1.00782 1.00836 1.00812 1.00861 1.00853 1.00861 1.00853 1.00836 
1.00812 1.00747 1.00782 1.00708 1.00666 1.00582 1.00623 1.00507 1.00543 
1.00478 1.00454 1.00438 1.00438 1.00454 1.00478 1.00507 1.00543 1.00623 
1.00582 1.00708 1.00666 1.00782 1.00747 1.00836 1.00812 1.00861 1.00853 
1.00861 1.00853 1.00836 1.00812 1.00782 1.00747 1.00708 1.00666 1.00623 
1.00582 1.00507 1.00543 1.00454 1.00478 1.00438 1.00438 1.00478 1.00454 
1.00543 1.00507 1.00582 1.00623 1.00666 1.00708 1.00747 1.00782 1.00812 
1.00836 1.00853 1.00861 1.00853 1.00861 1.00812 1.00836 1.00747 1.00782 
1.00666 1.00708 1.00582 1.00623 1.00543 1.00507 1.00478 1.00454 1.00438 
1.00438 1.00454 1.00478 1.00543 1.00507 1.00623 1.00582 1.00666 1.00708 
1.00782 1.00747 1.00812 1.00836 1.00853 1.00861 1.00853 1.00861 1.00812 
1.00836 1.00782 1.00747 1.00666 1.00708 1.00623 1.00582 1.00543 1.00507 
1.00454 1.00478 1.00438 1.00438 1.00478 1.00454 1.00543 1.00507 1.00623 
1.00582 1.00708 1.00666 1.00782 1.00747 1.00836 1.00812 1.00853 1.00861 
1.00853 1.00861 1.00836 1.00812 1.00782 1.00747 1.00708 1.00666 1.00623 
1.00582 1.00543 1.00507 1.00478 1.00454 1.00438 1.00438 1.00454 1.00478 
1.00507 1.00543 1.00582 1.00623 1.00708 1.00666 1.00747 1.00782 1.00812 
1.00836 1.00853 1.00861 1.00853 1.00861 1.00812 1.00836 1.00747 1.00782 
1.00708 1.00666 1.00582 1.00623 1.00507 1.00543 1.00454 1.00478 1.00438 
1.00438 1.00478 1.00454 1.00543 1.00507 1.00623 1.00582 1.00666 1.00708 
1.00782 1.00747 1.00836 1.00812 1.00861 1.00853 1.00861 1.00853 1.00836 
1.00812 1.00782 1.00747 1.00666 1.00708 1.00623 1.00582 1.00543 1.00507 
1.00478 1.00454 1.00438 1.00438 1.00454 1.00478 1.00507 1.00543 1.00582 
1.00623 1.00666 1.00708 1.00747 1.00782 1.00812 1.00836 1.00861 1.00853 
1.00861 1.00853 1.00812 1.00836 1.00747 1.00782 1.00666 1.00708 1.00582 
1.00623 1.00507 1.00543 1.00454 1.00478 1.00438 1.00438 1.00478 1.00454 
1.00507 1.00543 1.00582 1.00623 1.00708 1.00666 1.00747 1.00782 1.00836 
1.00812 1.00861 1.00853 1.00861 1.00853 1.00836 1.00812 1.00747 1.00782 
1.00708 1.00666 1.00582 1.00623 1.00507 1.00543 1.00478 1.00454 1.00438 
1.00438 1.00454 1.00478 1.00507 1.00543 1.00623 1.00582 1.00708 1.00666 
1.00782 1.00747 1.00836 1.00812 1.00861 1.00853 1.00861 1.00853 1.00836 
1.00812 1.00782 1.00747 1.00708 1.00666 1.00623 1.00582 1.00507 1.00543 
1.00454 1.00478 1.00438 1.00438 1.00478 1.00454 1.00543 1.00507 1.00582 
1.00623 1.00666 1.00708 1.00747 1.00782 1.00812 1.00836 1.00853 1.00861 
1.00853 1.00861 1.00812 1.00836 1.00747 1.00782 1.00666 1.00708 1.00582 
1.00623 1.00543 1.00507 1.00478 1.00454 1.00438 1.00438 1.00454 1.00478 
1.00543 1.00507 1.00623 1.00582 1.00666 1.00708 1.00782 1.00747 1.00812 
1.00836 1.00853 1.00861 1.00853 1.00861 1.00812 1.00836 1.00782 1.00747 
1.00666 1.00708 1.00623 1.00582 1.00543 1.00507 1.00454 1.00478 1.00438 
1.00438 1.00478 1.00454 1.00543 1.00507 1.00623 1.00582 1.00708 1.00666 
1.00782 1.00747 1.00836 1.00812 1.00853 1.00861 1.00853 1.00861 1.00836 
1.00812 1.00782 1.00747 1.00708 1.00666 1.00623 1.00582 1.00543 1.00507 
1.00478 1.00454 1.00438 1.00438 1.00454 1.00478 1.00507 1.00543 1.00582 
1.00623 1.00708 1.00666 1.00747 1.00782 1.00812 1.00836 1.00853 1.00861 
1.00853 1.00861 1.00812 1.00836 1.00747 1.00782 1.00708 1.00666 1.00582 
1.00623 1.00507 1.00543 1.00454 1.00478 1.00438 1.00438 1.00478 1.00454 
1.00543 1.00507 1.00623 1.00582 1.00666 1.00708 1.00782 1.00747 1.00836 
1.00812 1.00861 1.00853 1.00861 1.00853 1.00836 1.00812 1.00782 1.00747 
1.00666 1.00708 1.00623 1.00582 1.00543 1.00507 1.00478 1.00454 1.00438 
1.00438 1.00454 1.00478 1.00507 1.00543 1.00582 1.00623 1.00666 1.00708 
1.00747 1.00782 1.00812 1.00836 1.00861 1.00853 1.00861 1.00853 1.00812 
1.00836 1.00747 1.00782 1.00666 1.00708 1.00582 1.00623 1.00507 1.00543 
1.00454 1.00478 1.00438 1.00438 1.00478 1.00454 1.00507 1.00543 1.00582 
1.00623 1.00708 1.00666 1.00747 1.00782 1.00836 1.00812 1.00861 1.00853 
1.00861 1.00853 1.00836 1.00812 1.00747 1.00782 1.00708 1.00666 1.00582 
1.00623 1.00507 1.00543 1.00478 1.00454 1.00438 1.00438 1.00454 1.00478 
1.00507 1.00543 1.00623 1.00582 1.00708 1.00666 1.00782 1.00747 1.00836 
1.00812 1.00861 1.00853 1.00861 1.00853 1.00836 1.00812 1.00782 1.00747 
1.00708 1.00666 1.00623 1.00582 1.00507 1.00543 1.00454 1.00478 1.00438 
1.00438 1.00478 1.00454 1.00543 1.00507 1.00582 1.00623 1.00666 1.00708 
1.00747 1.00782 1.00812 1.00836 1.00853 1.00861 1.00853 1.00861 1.00812 
1.00836 1.00747 1.00782 1.00666 1.00708 1.00582 1.00623 1.00543 1.00507 
1.00478 1.00454 1.00438 1.00438 1.00454 1.00478 1.00543 1.00507 1.00623 
1.00582 1.00666 1.00708 1.00782 1.00747 1.00812 1.00836 1.00853 1.00861 
1.00853 1.00861 1.00812 1.00836 1.00782 1.00747 1.00666 1.00708 1.00623 
1.00582 1.00543 1.00507 1.00454 1.00478 1.00438 1.00438 1.00478 1.00454 
1.00543 1.00507 1.00623 1.00582 1.00708 1.00666 1.00782 1.00747 1.00836 
1.00812 1.00853 1.00861 1.00853 1.00861 1.00836 1.00812 1.00782 1.00747 
1.00708 1.00666 1.00623 1.00582 1.00543 1.00507 1.00478 1.00454 1.00438 
1.00438 1.00454 1.00478 1.00507 1.00543 1.00582 1.00623 1.00708 1.00666 
1.00747 1.00782 1.00812 1.00836 1.00853 1.00861 1.00853 1.00861 1.00812 
1.00836 1.00747 1.00782 1.00708 1.00666 1.00582 1.00623 1.00507 1.00543 
1.00454 1.00478 1.00438 1.00438 1.00478 1.00454 1.00543 1.00507 1.00623 
1.00582 1.00666 1.00708 1.00782 1.00747 1.00836 1.00812 1.00861 1.00853 
1.00861 1.00853 1.00836 1.00812 1.00782 1.00747 1.00666 1.00708 1.00623 
1.00582 1.00543 1.00507 1.00478 1.00454 1.00438 1.00438 1.00454 1.00478 
1.00507 1.00543 1.00582 1.00623 1.00666 1.00708 1.00747 1.00782 1.00812 
1.00836 1.00861 1.00853 1.00861 1.00853 1.00812 1.00836 1.00747 1.00782 
1.00666 1.00708 1.00582 1.00623 1.00507 1.00543 1.00454 1.00478 1.00438 
1.00438 1.00478 1.00454 1.00507 1.00543 1.00582 1.00623 1.00708 1.00666 
1.00747 1.00782 1.00836 1.00812 1.00861 1.00853 1.00861 1.00853 1.00836 
1.00812 1.00747 1.00782 1.00708 1.00666 1.00582 1.00623 1.00507 1.00543 
1.00478 1.00454 1.00438 1.00438 1.00454 1.00478 1.00507 1.00543 1.00623 
1.00582 1.00708 1.00666 1.00782 1.00747 1.00836 1.00812 1.00861 1.00853 
1.00861 1.00853 1.00836 1.00812 1.00782 1.00747 1.00708 1.00666 1.00623 
1.00582 1.00507 1.00543 1.00454 1.00478 1.00438 
E_normal 1 960 double
1.00253 0.996178 1.01106 1.00259 1.00451 1.00445 1.00656 1.00579 1.01048 
1.00849 1.0122 1.01095 1.0141 1.01296 1.01394 1.01296 1.01394 1.01095 
1.0141 1.00849 1.0122 1.00579 1.01048 1.00445 1.00656 1.00259 1.00451 
0.996178 1.01106 1.00253 1.00256 1.01101 0.996104 1.00241 1.00424 1.0063 
1.00407 1.00532 1.00945 1.01178 1.00799 1.01057 1.01341 1.01303 1.01391 
1.01303 1.01391 1.01057 1.01341 1.01178 1.00799 1.00532 1.00945 1.0063 
1.00407 1.00241 1.00424 1.01101 0.996104 1.00256 1.00252 0.995952 1.01109 
1.00192 1.00571 1.00695 1.00432 1.00961 1.00545 1.01269 1.00832 1.01344 
1.01101 1.01278 1.01402 1.01278 1.01402 1.01344 1.01101 1.01269 1.00832 
1.00961 1.00545 1.00695 1.00432 1.00192 1.00571 0.995952 1.01109 1.00252 
1.00255 1.01108 0.995903 1.00565 1.00196 1.00447 1.00644 1.01038 1.00576 
1.00832 1.01216 1.01092 1.01347 1.01315 1.0136 1.01315 1.0136 1.01092 
1.01347 1.00832 1.01216 1.01038 1.00576 1.00447 1.00644 1.00565 1.00196 
1.01108 0.995903 1.00255 1.00255 0.995903 1.01108 1.00196 1.00565 1.00644 
1.00447 1.00576 1.01038 1.01216 1.00832 1.01347 1.01092 1.0136 1.01315 
1.0136 1.01315 1.01347 1.01092 1.01216 1.00832 1.00576 1.01038 1.00644 
1.00447 1.00196 1.00565 0.995903 1.01108 1.00255 1.00252 1.01109 0.995952 
1.00571 1.00192 1.00432 1.00695 1.00545 1.00961 1.00832 1.01269 1.01101 
1.01344 1.01402 1.01278 1.01402 1.01278 1.01101 1.01344 1.00832 1.01269 
1.00545 1.00961 1.00432 1.00695 1.00571 1.00192 1.01109 0.995952 1.00252 
1.00256 0.996104 1.01101 1.00424 1.00241 1.00407 1.0063 1.00945 1.00532 
1.00799 1.01178 1.01341 1.01057 1.01391 1.01303 1.01391 1.01303 1.01341 
1.01057 1.00799 1.01178 1.00945 1.00532 1.00407 1.0063 1.00424 1.00241 
0.996104 1.01101 1.00256 1.00253 1.01106 0.996178 1.00451 1.00259 1.00656 
1.00445 1.01048 1.00579 1.0122 1.00849 1.0141 1.01095 1.01394 1.01296 
1.01394 1.01296 1.0141 1.01095 1.0122 1.00849 1.01048 1.00579 1.00656 
1.00445 1.00451 1.00259 1.01106 0.996178 1.00253 1.00253 0.996178 1.01106 
1.00259 1.00451 1.00445 1.00656 1.00579 1.01048 1.00849 1.0122 1.01095 
1.0141 1.01296 1.01394 1.01296 1.01394 1.01095 1.0141 1.00849 1.0122 
1.00579 1.01048 1.00445 1.00656 1.00259 1.00451 0.996178 1.01106 1.00253 
1.00256 1.01101 0.996104 1.00241 1.00424 1.0063 1.00407 1.00532 1.00945 
1.01178 1.00799 1.01057 1.01341 1.01303 1.01391 1.01303 1.01391 1.01057 
1.01341 1.01178 1.00799 1.00532 1.00945 1.0063 1.00407 1.00241 1.00424 
1.01101 0.996104 1.00256 1.00252 0.995952 1.01109 1.00192 1.00571 1.00695 
1.00432 1.00961 1.00545 1.01269 1.00832 1.01344 1.01101 1.01278 1.01402 
1.01278 1.01402 1.01344 1.01101 1.01269 1.00832 1.00961 1.00545 1.00695 
1.00432 1.00192 1.00571 0.995952 1.01109 1.00252 1.00255 1.01108 0.995903 
1.00565 1.00196 1.00447 1.00644 1.01038 1.00576 1.00832 1.01216 1.01092 
1.01347 1.01315 1.0136 1.01315 1.0136 1.01092 1.01347 1.00832 1.01216 
1.01038 1.00576 1.00447 1.00644 1.00565 1.00196 1.01108 0.995903 1.00255 
1.00255 0.995903 1.01108 1.00196 1.00565 1.00644 1.00447 1.00576 1.01038 
1.01216 1.00832 1.01347 1.01092 1.0136 1.01315 1.0136 1.01315 1.01347 
1.01092 1.01216 1.00832 1.00576 1.01038 1.00644 1.00447 1.00196 1.00565 
0.995903 1.01108 1.00255 1.00252 1.01109 0.995952 1.00571 1.00192 1.00432 
1.00695 1.00545 1.00961 1.00832 1.01269 1.01101 1.01344 1.01402 1.01278 
1.01402 1.01278 1.01101 1.01344 1.00832 1.01269 1.00545 1.00961 1.00432 
1.00695 1.00571 1.00192 1.01109 0.995952 1.00252 1.00256 0.996104 1.01101 
1.00424 1.00241 1.00407 1.0063 1.00945 1.00532 1.00799 1.01178 1.01341 
1.01057 1.01391 1.01303 1.01391 1.01303 1.01341 1.01057 1.00799 1.01178 
1.00945 1.00532 1.00407 1.0063 1.00424 1.00241 0.996104 1.01101 1.00256 
1.00253 1.01106 0.996178 1.00451 1.00259 1.00656 1.00445 1.01048 1.00579 
1.0122 1.00849 1.0141 1.01095 1.01394 1.01296 1.01394 1.01296 1.0141 
1.01095 1.0122 1.00849 1.01048 1.00579 1.00656 1.00445 1.00451 1.00259 
1.01106 0.996178 1.00253 1.00253 0.996178 1.01106 1.00259 1.00451 1.00445 
1.00656 1.00579 1.01048 1.00849 1.0122 1.01095 1.0141 1.01296 1.01394 
1.01296 1.01394 1.01095 1.0141 1.00849 1.0122 1.00579 1.01048 1.00445 
1.00656 1.00259 1.00451 0.996178 1.01106 1.00253 1.00256 1.01101 0.996104 
1.00241 1.00424 1.0063 1.00407 1.00532 1.00945 1.01178 1.00799 1.01057 
1.01341 1.01303 1.01391 1.01303 1.01391 1.01057 1.01341 1.01178 1.00799 
1.00532 1.00945 1.0063 1.00407 1.00241 1.00424 1.01101 0.996104 1.00256 
1.00252 0.995952 1.01109 1.00192 1.00571 1.00695 1.00432 1.00961 1.00545 
1.01269 1.00832 1.01344 1.01101 1.01278 1.01402 1.01278 1.01402 1.01344 
1.01101 1.01269 1.00832 1.00961 1.00545 1.00695 1.00432 1.00192 1.00571 
0.995952 1.01109 1.00252 1.00255 1.01108 0.995903 1.00565 1.00196 1.00447 
1.00644 1.01038 1.00576 1.00832 1.01216 1.01092 1.01347 1.01315 1.0136 
1.01315 1.0136 1.01092 1.01347 1.00832 1.01216 1.01038 1.00576 1.00447 
1.00644 1.00565 1.00196 1.01108 0.995903 1.00255 1.00255 0.995903 1.01108 
1.00196 1.00565 1.00644 1.00447 1.00576 1.01038 1.01216 1.00832 1.01347 
1.01092 1.0136 1.01315 1.0136 1.01315 1.01347 1.01092 1.01216 1.00832 
1.00576 1.01038 1.00644 1.00447 1.00196 1.00565 0.995903 1.01108 1.00255 
1.00252 1.01109 0.995952 1.00571 1.00192 1.00432 1.00695 1.00545 1.00961 
1.00832 1.01269 1.01101 1.01344 1.01402 1.01278 1.01402 1.01278 1.01101 
1.01344 1.00832 1.01269 1.00545 1.00961 1.00432 1.00695 1.00571 1.00192 
1.01109 0.995952 1.00252 1.00256 0.996104 1.01101 1.00424 1.00241 1.00407 
1.0063 1.00945 1.00532 1.00799 1.01178 1.01341 1.01057 1.01391 1.01303 
1.01391 1.01303 1.01341 1.01057 1.00799 1.01178 1.00945 1.00532 1.00407 
1.0063 1.00424 1.00241 0.996104 1.01101 1.00256 1.00253 1.01106 0.996178 
1.00451 1.00259 1.00656 1.00445 1.01048 1.00579 1.0122 1.00849 1.0141 
1.01095 1.01394 1.01296 1.01394 1.01296 1.0141 1.01095 1.0122 1.00849 
1.01048 1.00579 1.00656 1.00445 1.00451 1.00259 1.01106 0.996178 1.00253 
1.00253 0.996178 1.01106 1.00259 1.00451 1.00445 1.00656 1.00579 1.01048 
1.00849 1.0122 1.01095 1.0141 1.01296 1.01394 1.01296 1.01394 1.01095 
1.0141 1.00849 1.0122 1.00579 1.01048 1.00445 1.00656 1.00259 1.00451 
0.996178 1.01106 1.00253 1.00256 1.01101 0.996104 1.00241 1.00424 1.0063 
1.00407 1.00532 1.00945 1.01178 1.00799 1.01057 1.01341 1.01303 1.01391 
1.01303 1.01391 1.01057 1.01341 1.01178 1.00799 1.00532 1.00945 1.0063 
1.00407 1.00241 1.00424 1.01101 0.996104 1.00256 1.00252 0.995952 1.01109 
1.00192 1.00571 1.00695 1.00432 1.00961 1.00545 1.01269 1.00832 1.01344 
1.01101 1.01278 1.01402 1.01278 1.01402 1.01344 1.01101 1.01269 1.00832 
1.00961 1.00545 1.00695 1.00432 1.00192 1.00571 0.995952 1.01109 1.00252 
1.00255 1.01108 0.995903 1.00565 1.00196 1.00447 1.00644 1.01038 1.00576 
1.00832 1.01216 1.01092 1.01347 1.01315 1.0136 1.01315 1.0136 1.01092 
1.01347 1.00832 1.01216 1.01038 1.00576 1.00447 1.00644 1.00565 1.00196 
1.01108 0.995903 1.00255 1.00255 0.995903 1.01108 1.00196 1.00565 1.00644 
1.00447 1.00576 1.01038 1.01216 1.00832 1.01347 1.01092 1.0136 1.01315 
1.0136 1.01315 1.01347 1.01092 1.01216 1.00832 1.00576 1.01038 1.00644 
1.00447 1.00196 1.00565 0.995903 1.01108 1.00255 1.00252 1.01109 0.995952 
1.00571 1.00192 1.00432 1.00695 1.00545 1.00961 1.00832 1.01269 1.01101 
1.01344 1.01402 1.01278 1.01402 1.01278 1.01101 1.01344 1.00832 1.01269 
1.00545 1.00961 1.00432 1.00695 1.00571 1.00192 1.01109 0.995952 1.00252 
1.00256 0.996104 1.01101 1.00424 1.00241 1.00407 1.0063 1.00945 1.00532 
1.00799 1.01178 1.01341 1.01057 1.01391 1.01303 1.01391 1.01303 1.01341 
1.01057 1.00799 1.01178 1.00945 1.00532 1.00407 1.0063 1.00424 1.00241 
0.996104 1.01101 1.00256 1.00253 1.01106 0.996178 1.00451 1.00259 1.00656 
1.00445 1.01048 1.00579 1.0122 1.00849 1.0141 1.01095 1.01394 1.01296 
1.01394 1.01296 1.0141 1.01095 1.0122 1.00849 1.01048 1.00579 1.00656 
1.00445 1.00451 1.00259 1.01106 0.996178 1.00253 
POINT_DATA 482
NORMALS Normals float
4.67936e-10 1 -1.81325e-09 0.191325 0.980789 0.0380568 0.227152 0.973859 3.11865e-10 
0.361208 0.929163 0.0786406 0.412766 0.910837 -6.24083e-10 0.557569 0.823577 0.104109 
0.555535 0.831493 9.37245e-10 0.709914 0.692995 0.125621 0.683494 0.729956 -3.74977e-09 
0.820874 0.54382 0.174429 0.81277 0.582585 0 0.916862 0.364378 0.163075 
0.910813 0.412819 -2.50414e-09 0.962058 0.195108 0.190728 0.973852 0.227183 0 
0.973856 -1.25308e-09 0.227168 1 0 -9.40313e-10 0.962058 -0.195108 0.190728 
0.973852 -0.227183 -1.25278e-09 0.916862 -0.364378 0.163075 0.910813 -0.412819 -2.50414e-09 
0.820874 -0.54382 0.174429 0.81277 -0.582585 0 0.709914 -0.692995 0.125621 
0.683494 -0.729956 -1.87488e-09 0.557569 -0.823577 0.104109 0.555535 -0.831493 9.37245e-10 
0.361208 -0.929163 0.0786406 0.412766 -0.910837 3.12042e-10 0.191325 -0.980789 0.0380568 
0.227152 -0.973859 3.11865e-10 4.67936e-10 -1 -1.81325e-09 0.209861 0.973859 0.0869274 
0.366683 0.916136 0.16198 0.512219 0.831491 0.21507 0.665785 0.697093 0.266065 
0.771323 0.53904 0.338374 0.863138 0.369649 0.344024 0.916857 0.175719 0.358464 
0.910825 0 0.412792 0.916857 -0.175719 0.358464 0.863138 -0.369649 0.344024 
0.771323 -0.53904 0.338374 0.665785 -0.697093 0.266065 0.512219 -0.831491 0.21507 
0.366683 -0.916136 0.16198 0.209861 -0.973859 0.0869274 0.162197 0.980789 0.108377 
0.29279 0.935949 0.195636 0.438979 0.849272 0.293317 0.573479 0.716974 0.396321 
0.690511 0.571805 0.442983 0.757313 0.412819 0.506021 0.820861 0.208866 0.531566 
0.812792 0 0.582554 0.820861 -0.208866 0.531566 0.757313 -0.412819 0.506021 
0.690511 -0.571805 0.442983 0.573479 -0.716974 0.396321 0.438979 -0.849272 0.293317 
0.292789 -0.935949 0.195636 0.162197 -0.980789 0.108377 0.160621 0.973859 0.160621 
0.29187 0.910837 0.291869 0.411906 0.812814 0.411906 0.499977 0.70714 0.499977 
0.587921 0.555606 0.587921 0.661802 0.35219 0.661802 0.697671 0.162818 0.697671 
0.707107 0 0.707107 0.697671 -0.162818 0.697671 0.661802 -0.35219 0.661802 
0.587921 -0.555606 0.587921 0.499977 -0.70714 0.499977 0.411906 -0.812814 0.411906 
0.291869 -0.910837 0.291869 0.160621 -0.973859 0.160621 0.108377 0.980789 0.162197 
0.195636 0.935949 0.29279 0.293317 0.849272 0.438979 0.396321 0.716974 0.573479 
0.442983 0.571805 0.690511 0.506021 0.412819 0.757313 0.531566 0.208866 0.820861 
0.582554 0 0.812792 0.531566 -0.208866 0.820861 0.506021 -0.412819 0.757313 
0.442983 -0.571805 0.690511 0.396321 -0.716974 0.573479 0.293317 -0.849272 0.438979 
0.195636 -0.935949 0.29279 0.108377 -0.980789 0.162197 0.0869274 0.973859 0.209861 
0.16198 0.916136 0.366683 0.21507 0.831491 0.512219 0.266065 0.697093 0.665785 
0.338374 0.53904 0.771323 0.344025 0.369649 0.863138 0.358464 0.175719 0.916857 
0.412792 0 0.910825 0.358464 -0.175719 0.916857 0.344024 -0.369649 0.863138 
0.338374 -0.53904 0.771323 0.266065 -0.697093 0.665786 0.21507 -0.831491 0.512219 
0.16198 -0.916136 0.366683 0.0869274 -0.973859 0.209861 0.0380568 0.980789 0.191325 
0.0786406 0.929163 0.361208 0.104109 0.823577 0.557569 0.125621 0.692995 0.709914 
0.174429 0.54382 0.820874 0.163075 0.364378 0.916862 0.190728 0.195108 0.962058 
0.227168 -1.25308e-09 0.973856 0.190728 -0.195108 0.962058 0.163075 -0.364378 0.916862 
0.174429 -0.54382 0.820874 0.125621 -0.692995 0.709914 0.104109 -0.823577 0.557569 
0.0786406 -0.929163 0.361208 0.0380568 -0.980789 0.191325 3.11865e-10 0.973859 0.227152 
-6.24083e-10 0.910837 0.412766 9.37245e-10 0.831493 0.555535 -2.49984e-09 0.729956 0.683494 
2.50214e-09 0.582585 0.81277 -2.50414e-09 0.412819 0.910813 -1.25278e-09 0.227183 0.973852 
9.40313e-10 0 1 -1.25278e-09 -0.227183 0.973852 -2.50414e-09 -0.412819 0.910813 
0 -0.582585 0.81277 6.24961e-10 -0.729956 0.683494 9.37245e-10 -0.831493 0.555535 
-3.12042e-10 -0.910837 0.412766 0 -0.973859 0.227152 -0.0380568 0.980789 0.191325 
-0.0786406 0.929163 0.361208 -0.104109 0.823577 0.557569 -0.125621 0.692995 0.709914 
-0.174429 0.54382 0.820874 -0.163075 0.364378 0.916862 -0.190728 0.195108 0.962058 
-0.227168 -1.25308e-09 0.973856 -0.190728 -0.195108 0.962058 -0.163075 -0.364378 0.916862 
-0.174429 -0.54382 0.820874 -0.125621 -0.692995 0.709914 -0.104109 -0.823577 0.557569 
-0.0786406 -0.929163 0.361208 -0.0380568 -0.980789 0.191325 -0.0869274 0.973859 0.209861 